Program Version,EnergyPlus, Version 8.5.0-c87e61b44b, YMD=2020.01.13 15:16
1,5,Environment Title[],Latitude[deg],Longitude[deg],Time Zone[],Elevation[m]
2,6,Day of Simulation[],Month[],Day of Month[],DST Indicator[1=yes 0=no],Hour[],StartMinute[],EndMinute[],DayType
3,3,Cumulative Day of Simulation[],Month[],Day of Month[],DST Indicator[1=yes 0=no],DayType  ! When Daily Meters Requested
4,2,Cumulative Days of Simulation[],Month[]  ! When Monthly Meters Requested
5,1,Cumulative Days of Simulation[] ! When Run Period Meters Requested
9,1,Electricity:Facility [J] !TimeStep
380,1,DistrictCooling:Facility [J] !TimeStep
349,1,DistrictHeating:Facility [J] !TimeStep
End of Data Dictionary
1,RUN PERIOD 1,  41.80,  12.23,   1.00,   3.00
2,1, 1, 1, 0, 1, 0.00,15.00,Sunday
9,5138260.27652055
349,3936581.25685808
380,0.0
2,1, 1, 1, 0, 1,15.00,30.00,Sunday
9,5138260.27652055
349,4522107.99792585
380,0.0
2,1, 1, 1, 0, 1,30.00,45.00,Sunday
9,5138260.27652055
349,5234611.3793949
380,0.0
2,1, 1, 1, 0, 1,45.00,60.00,Sunday
9,5138260.27652055
349,6053685.06881881
380,0.0
2,1, 1, 1, 0, 2, 0.00,15.00,Sunday
9,5138260.27652055
349,6064476.0031495
380,0.0
2,1, 1, 1, 0, 2,15.00,30.00,Sunday
9,5138260.27652055
349,6152532.79783298
380,0.0
2,1, 1, 1, 0, 2,30.00,45.00,Sunday
9,5138260.27652055
349,6201194.55106398
380,0.0
2,1, 1, 1, 0, 2,45.00,60.00,Sunday
9,5138260.27652055
349,6238976.31327191
380,0.0
2,1, 1, 1, 0, 3, 0.00,15.00,Sunday
9,5138260.27652055
349,6299784.42691219
380,0.0
2,1, 1, 1, 0, 3,15.00,30.00,Sunday
9,5138260.27652055
349,6357507.35274987
380,0.0
2,1, 1, 1, 0, 3,30.00,45.00,Sunday
9,5138260.27652055
349,6412206.0416087
380,0.0
2,1, 1, 1, 0, 3,45.00,60.00,Sunday
9,5138260.27652055
349,6464271.97981412
380,0.0
2,1, 1, 1, 0, 4, 0.00,15.00,Sunday
9,5138260.27652055
349,6513050.70318623
380,0.0
2,1, 1, 1, 0, 4,15.00,30.00,Sunday
9,5138260.27652055
349,6560585.85048199
380,0.0
2,1, 1, 1, 0, 4,30.00,45.00,Sunday
9,5138260.27652055
349,6606122.43380927
380,0.0
2,1, 1, 1, 0, 4,45.00,60.00,Sunday
9,5138260.27652055
349,6649565.73707256
380,0.0
2,1, 1, 1, 0, 5, 0.00,15.00,Sunday
9,5138260.27652055
349,6723195.77229432
380,0.0
2,1, 1, 1, 0, 5,15.00,30.00,Sunday
9,5138260.27652055
349,6796352.63692015
380,0.0
2,1, 1, 1, 0, 5,30.00,45.00,Sunday
9,5138260.27652055
349,6868630.50124286
380,0.0
2,1, 1, 1, 0, 5,45.00,60.00,Sunday
9,5138260.27652055
349,6939641.60326646
380,0.0
2,1, 1, 1, 0, 6, 0.00,15.00,Sunday
9,5138260.27652055
349,6962242.41309409
380,0.0
2,1, 1, 1, 0, 6,15.00,30.00,Sunday
9,5138260.27652055
349,6981657.81521104
380,0.0
2,1, 1, 1, 0, 6,30.00,45.00,Sunday
9,5138260.27652055
349,6998006.30726523
380,0.0
2,1, 1, 1, 0, 6,45.00,60.00,Sunday
9,5138260.27652055
349,7011498.96127628
380,0.0
2,1, 1, 1, 0, 7, 0.00,15.00,Sunday
9,5138260.27652055
349,6783081.08394646
380,0.0
2,1, 1, 1, 0, 7,15.00,30.00,Sunday
9,5138260.27652055
349,6544003.18926657
380,0.0
2,1, 1, 1, 0, 7,30.00,45.00,Sunday
9,5138260.27652055
349,6297600.47654351
380,0.0
2,1, 1, 1, 0, 7,45.00,60.00,Sunday
9,5138260.27652055
349,6045125.03669553
380,0.0
2,1, 1, 1, 0, 8, 0.00,15.00,Sunday
9,5138260.27652055
349,6039015.77098536
380,0.0
2,1, 1, 1, 0, 8,15.00,30.00,Sunday
9,5138260.27652055
349,6038335.92320017
380,0.0
2,1, 1, 1, 0, 8,30.00,45.00,Sunday
9,5138260.27652055
349,6004900.19170998
380,0.0
2,1, 1, 1, 0, 8,45.00,60.00,Sunday
9,5138260.27652055
349,5963741.84156709
380,0.0
2,1, 1, 1, 0, 9, 0.00,15.00,Sunday
9,5138260.27652055
349,5926567.37608848
380,0.0
2,1, 1, 1, 0, 9,15.00,30.00,Sunday
9,5138260.27652055
349,5890534.0384153
380,0.0
2,1, 1, 1, 0, 9,30.00,45.00,Sunday
9,5138260.27652055
349,5816236.02203593
380,0.0
2,1, 1, 1, 0, 9,45.00,60.00,Sunday
9,5138260.27652055
349,5697885.17413523
380,0.0
2,1, 1, 1, 0,10, 0.00,15.00,Sunday
9,5138260.27652055
349,5573283.30009558
380,0.0
2,1, 1, 1, 0,10,15.00,30.00,Sunday
9,5138260.27652055
349,5444642.32118295
380,0.0
2,1, 1, 1, 0,10,30.00,45.00,Sunday
9,5138260.27652055
349,5316904.142978
380,0.0
2,1, 1, 1, 0,10,45.00,60.00,Sunday
9,5138260.27652055
349,5196528.29428657
380,0.0
2,1, 1, 1, 0,11, 0.00,15.00,Sunday
9,5138260.27652055
349,4658323.79512396
380,0.0
2,1, 1, 1, 0,11,15.00,30.00,Sunday
9,5138260.27652055
349,4118282.16535218
380,0.0
2,1, 1, 1, 0,11,30.00,45.00,Sunday
9,5138260.27652055
349,3591457.86157697
380,0.0
2,1, 1, 1, 0,11,45.00,60.00,Sunday
9,5138260.27652055
349,3071470.01031743
380,0.0
2,1, 1, 1, 0,12, 0.00,15.00,Sunday
9,5138260.27652055
349,2577004.93080177
380,0.0
2,1, 1, 1, 0,12,15.00,30.00,Sunday
9,5138260.27652055
349,2116629.27552443
380,0.0
2,1, 1, 1, 0,12,30.00,45.00,Sunday
9,5138260.27652055
349,1663108.1679139
380,0.0
2,1, 1, 1, 0,12,45.00,60.00,Sunday
9,5138260.27652055
349,1213534.49514552
380,0.0
2,1, 1, 1, 0,13, 0.00,15.00,Sunday
9,5138260.27652055
349,763286.832300426
380,0.0
2,1, 1, 1, 0,13,15.00,30.00,Sunday
9,5138260.27652055
349,314867.211952309
380,0.0
2,1, 1, 1, 0,13,30.00,45.00,Sunday
9,5138260.27652055
349,0.0
380,0.0
2,1, 1, 1, 0,13,45.00,60.00,Sunday
9,5138260.27652055
349,0.0
380,0.0
2,1, 1, 1, 0,14, 0.00,15.00,Sunday
9,5138260.27652055
349,0.0
380,0.0
2,1, 1, 1, 0,14,15.00,30.00,Sunday
9,5138260.27652055
349,0.0
380,0.0
2,1, 1, 1, 0,14,30.00,45.00,Sunday
9,5138260.27652055
349,0.0
380,0.0
2,1, 1, 1, 0,14,45.00,60.00,Sunday
9,5138260.27652055
349,0.0
380,0.0
2,1, 1, 1, 0,15, 0.00,15.00,Sunday
9,5138260.27652055
349,0.0
380,0.0
2,1, 1, 1, 0,15,15.00,30.00,Sunday
9,5138260.27652055
349,0.0
380,0.0
2,1, 1, 1, 0,15,30.00,45.00,Sunday
9,5138260.27652055
349,0.0
380,0.0
2,1, 1, 1, 0,15,45.00,60.00,Sunday
9,5138260.27652055
349,0.0
380,0.0
2,1, 1, 1, 0,16, 0.00,15.00,Sunday
9,5138260.27652055
349,0.0
380,0.0
2,1, 1, 1, 0,16,15.00,30.00,Sunday
9,5138260.27652055
349,0.0
380,0.0
2,1, 1, 1, 0,16,30.00,45.00,Sunday
9,5138260.27652055
349,0.0
380,0.0
2,1, 1, 1, 0,16,45.00,60.00,Sunday
9,5138260.27652055
349,0.0
380,0.0
2,1, 1, 1, 0,17, 0.00,15.00,Sunday
9,5138260.27652055
349,0.0
380,0.0
2,1, 1, 1, 0,17,15.00,30.00,Sunday
9,5138260.27652055
349,0.0
380,0.0
2,1, 1, 1, 0,17,30.00,45.00,Sunday
9,5138260.27652055
349,0.0
380,0.0
2,1, 1, 1, 0,17,45.00,60.00,Sunday
9,5138260.27652055
349,0.0
380,0.0
2,1, 1, 1, 0,18, 0.00,15.00,Sunday
9,5138260.27652055
349,0.0
380,0.0
2,1, 1, 1, 0,18,15.00,30.00,Sunday
9,5138260.27652055
349,0.0
380,0.0
2,1, 1, 1, 0,18,30.00,45.00,Sunday
9,5138260.27652055
349,0.0
380,0.0
2,1, 1, 1, 0,18,45.00,60.00,Sunday
9,5138260.27652055
349,0.0
380,0.0
2,1, 1, 1, 0,19, 0.00,15.00,Sunday
9,5138260.27652055
349,0.0
380,0.0
2,1, 1, 1, 0,19,15.00,30.00,Sunday
9,5138260.27652055
349,0.0
380,0.0
2,1, 1, 1, 0,19,30.00,45.00,Sunday
9,5138260.27652055
349,0.0
380,0.0
2,1, 1, 1, 0,19,45.00,60.00,Sunday
9,5138260.27652055
349,0.0
380,0.0
2,1, 1, 1, 0,20, 0.00,15.00,Sunday
9,5138260.27652055
349,515850.402881541
380,0.0
2,1, 1, 1, 0,20,15.00,30.00,Sunday
9,5138260.27652055
349,440564.337061423
380,0.0
2,1, 1, 1, 0,20,30.00,45.00,Sunday
9,5138260.27652055
349,603856.112270876
380,0.0
2,1, 1, 1, 0,20,45.00,60.00,Sunday
9,5138260.27652055
349,747822.590393467
380,0.0
2,1, 1, 1, 0,21, 0.00,15.00,Sunday
9,5138260.27652055
349,871012.937943267
380,0.0
2,1, 1, 1, 0,21,15.00,30.00,Sunday
9,5138260.27652055
349,996068.327321244
380,0.0
2,1, 1, 1, 0,21,30.00,45.00,Sunday
9,5138260.27652055
349,1123137.27897308
380,0.0
2,1, 1, 1, 0,21,45.00,60.00,Sunday
9,5138260.27652055
349,1252213.82457716
380,0.0
2,1, 1, 1, 0,22, 0.00,15.00,Sunday
9,5138260.27652055
349,1392323.90490327
380,0.0
2,1, 1, 1, 0,22,15.00,30.00,Sunday
9,5138260.27652055
349,1533639.66554596
380,0.0
2,1, 1, 1, 0,22,30.00,45.00,Sunday
9,5138260.27652055
349,1675520.83216059
380,0.0
2,1, 1, 1, 0,22,45.00,60.00,Sunday
9,5138260.27652055
349,1821311.72588485
380,0.0
2,1, 1, 1, 0,23, 0.00,15.00,Sunday
9,5138260.27652055
349,1994550.39093748
380,0.0
2,1, 1, 1, 0,23,15.00,30.00,Sunday
9,5138260.27652055
349,2170146.78313182
380,0.0
2,1, 1, 1, 0,23,30.00,45.00,Sunday
9,5138260.27652055
349,2347957.13177225
380,0.0
2,1, 1, 1, 0,23,45.00,60.00,Sunday
9,5138260.27652055
349,2527857.5193519
380,0.0
2,1, 1, 1, 0,24, 0.00,15.00,Sunday
9,5138260.27652055
349,2735273.76508154
380,0.0
2,1, 1, 1, 0,24,15.00,30.00,Sunday
9,5138260.27652055
349,2946382.32038022
380,0.0
2,1, 1, 1, 0,24,30.00,45.00,Sunday
9,5138260.27652055
349,3160356.08433699
380,0.0
2,1, 1, 1, 0,24,45.00,60.00,Sunday
9,5138260.27652055
349,3376806.0075686
380,0.0
2,2, 1, 2, 0, 1, 0.00,15.00,Monday
9,6513888.02777605
349,2890703.22524018
380,0.0
2,2, 1, 2, 0, 1,15.00,30.00,Monday
9,6513888.02777605
349,3094628.83162869
380,0.0
2,2, 1, 2, 0, 1,30.00,45.00,Monday
9,6513888.02777605
349,3299441.68251285
380,0.0
2,2, 1, 2, 0, 1,45.00,60.00,Monday
9,6513888.02777605
349,3505617.68195168
380,0.0
2,2, 1, 2, 0, 2, 0.00,15.00,Monday
9,6513888.02777605
349,3266656.5635309
380,0.0
2,2, 1, 2, 0, 2,15.00,30.00,Monday
9,6513888.02777605
349,3008902.00876603
380,0.0
2,2, 1, 2, 0, 2,30.00,45.00,Monday
9,6513888.02777605
349,2741796.22937443
380,0.0
2,2, 1, 2, 0, 2,45.00,60.00,Monday
9,6513888.02777605
349,2468578.3176618
380,0.0
2,2, 1, 2, 0, 3, 0.00,15.00,Monday
9,6513888.02777605
349,2313824.31938932
380,0.0
2,2, 1, 2, 0, 3,15.00,30.00,Monday
9,6513888.02777605
349,2158702.25723183
380,0.0
2,2, 1, 2, 0, 3,30.00,45.00,Monday
9,6513888.02777605
349,2001175.21300009
380,0.0
2,2, 1, 2, 0, 3,45.00,60.00,Monday
9,6513888.02777605
349,1840532.20973513
380,0.0
2,2, 1, 2, 0, 4, 0.00,15.00,Monday
9,6513888.02777605
349,1666582.22068338
380,0.0
2,2, 1, 2, 0, 4,15.00,30.00,Monday
9,6513888.02777605
349,1488431.0847915
380,0.0
2,2, 1, 2, 0, 4,30.00,45.00,Monday
9,6513888.02777605
349,1305652.18739979
380,0.0
2,2, 1, 2, 0, 4,45.00,60.00,Monday
9,6513888.02777605
349,1118292.47473833
380,0.0
2,2, 1, 2, 0, 5, 0.00,15.00,Monday
9,6513888.02777605
349,1032254.83022553
380,0.0
2,2, 1, 2, 0, 5,15.00,30.00,Monday
9,6513888.02777605
349,950085.485309038
380,0.0
2,2, 1, 2, 0, 5,30.00,45.00,Monday
9,6513888.02777605
349,868270.037896998
380,0.0
2,2, 1, 2, 0, 5,45.00,60.00,Monday
9,6513888.02777605
349,785707.131512369
380,0.0
2,2, 1, 2, 0, 6, 0.00,15.00,Monday
9,7525265.05053009
349,196428.808229927
380,0.0
2,2, 1, 2, 0, 6,15.00,30.00,Monday
9,7525265.05053009
349,82826.2548064851
380,0.0
2,2, 1, 2, 0, 6,30.00,45.00,Monday
9,7525265.05053009
349,0.0
380,0.0
2,2, 1, 2, 0, 6,45.00,60.00,Monday
9,7525265.05053009
349,0.0
380,0.0
2,2, 1, 2, 0, 7, 0.00,15.00,Monday
9,7525265.05053009
349,83004269.9159124
380,0.0
2,2, 1, 2, 0, 7,15.00,30.00,Monday
9,7525265.05053009
349,37117603.7245008
380,0.0
2,2, 1, 2, 0, 7,30.00,45.00,Monday
9,7525265.05053009
349,63225353.6324723
380,0.0
2,2, 1, 2, 0, 7,45.00,60.00,Monday
9,7525265.05053009
349,33236104.9151721
380,0.0
2,2, 1, 2, 0, 8, 0.00,15.00,Monday
9,11570773.1415463
349,28990278.4211335
380,0.0
2,2, 1, 2, 0, 8,15.00,30.00,Monday
9,11570773.1415463
349,27073692.6201358
380,0.0
2,2, 1, 2, 0, 8,30.00,45.00,Monday
9,11570773.1415463
349,25481015.4071365
380,0.0
2,2, 1, 2, 0, 8,45.00,60.00,Monday
9,11570773.1415463
349,24149115.9848193
380,0.0
2,2, 1, 2, 0, 9, 0.00,15.00,Monday
9,30585436.1708723
349,7199579.68506636
380,0.0
2,2, 1, 2, 0, 9,15.00,30.00,Monday
9,30585436.1708723
349,6341568.60962727
380,0.0
2,2, 1, 2, 0, 9,30.00,45.00,Monday
9,30585436.1708723
349,5588756.50882836
380,0.0
2,2, 1, 2, 0, 9,45.00,60.00,Monday
9,30585436.1708723
349,4908999.16594112
380,0.0
2,2, 1, 2, 0,10, 0.00,15.00,Monday
9,30585436.1708723
349,4286085.30220105
380,0.0
2,2, 1, 2, 0,10,15.00,30.00,Monday
9,30585436.1708723
349,3692993.6108335
380,0.0
2,2, 1, 2, 0,10,30.00,45.00,Monday
9,30585436.1708723
349,3072036.59641447
380,0.0
2,2, 1, 2, 0,10,45.00,60.00,Monday
9,30585436.1708723
349,2409894.24593521
380,0.0
2,2, 1, 2, 0,11, 0.00,15.00,Monday
9,30585436.1708723
349,1986027.45988989
380,0.0
2,2, 1, 2, 0,11,15.00,30.00,Monday
9,30585436.1708723
349,1898487.77665997
380,0.0
2,2, 1, 2, 0,11,30.00,45.00,Monday
9,30585436.1708723
349,1815326.6259141
380,0.0
2,2, 1, 2, 0,11,45.00,60.00,Monday
9,30585436.1708723
349,1735461.38047157
380,0.0
2,2, 1, 2, 0,12, 0.00,15.00,Monday
9,30585436.1708723
349,1659870.79350611
380,0.0
2,2, 1, 2, 0,12,15.00,30.00,Monday
9,30585436.1708723
349,1586035.8921651
380,0.0
2,2, 1, 2, 0,12,30.00,45.00,Monday
9,30585436.1708723
349,1513248.64639867
380,0.0
2,2, 1, 2, 0,12,45.00,60.00,Monday
9,30585436.1708723
349,1441126.50361598
380,0.0
2,2, 1, 2, 0,13, 0.00,15.00,Monday
9,29209808.4196168
349,1367709.90552298
380,0.0
2,2, 1, 2, 0,13,15.00,30.00,Monday
9,29209808.4196168
349,1294947.3479446
380,0.0
2,2, 1, 2, 0,13,30.00,45.00,Monday
9,29209808.4196168
349,1223179.24374681
380,0.0
2,2, 1, 2, 0,13,45.00,60.00,Monday
9,29209808.4196168
349,1152067.34205668
380,0.0
2,2, 1, 2, 0,14, 0.00,15.00,Monday
9,30585436.1708723
349,1096409.72638692
380,0.0
2,2, 1, 2, 0,14,15.00,30.00,Monday
9,30585436.1708723
349,1041081.56662924
380,0.0
2,2, 1, 2, 0,14,30.00,45.00,Monday
9,30585436.1708723
349,985947.520899313
380,0.0
2,2, 1, 2, 0,14,45.00,60.00,Monday
9,30585436.1708723
349,931380.832947647
380,0.0
2,2, 1, 2, 0,15, 0.00,15.00,Monday
9,30585436.1708723
349,879575.516765262
380,0.0
2,2, 1, 2, 0,15,15.00,30.00,Monday
9,30585436.1708723
349,829186.890074691
380,0.0
2,2, 1, 2, 0,15,30.00,45.00,Monday
9,30585436.1708723
349,780752.812992324
380,0.0
2,2, 1, 2, 0,15,45.00,60.00,Monday
9,30585436.1708723
349,734747.855888575
380,0.0
2,2, 1, 2, 0,16, 0.00,15.00,Monday
9,30585436.1708723
349,689797.890909723
380,0.0
2,2, 1, 2, 0,16,15.00,30.00,Monday
9,30585436.1708723
349,647889.420001784
380,0.0
2,2, 1, 2, 0,16,30.00,45.00,Monday
9,30585436.1708723
349,609223.333986941
380,0.0
2,2, 1, 2, 0,16,45.00,60.00,Monday
9,30585436.1708723
349,573912.161870789
380,0.0
2,2, 1, 2, 0,17, 0.00,15.00,Monday
9,30585436.1708723
349,556782.080870922
380,0.0
2,2, 1, 2, 0,17,15.00,30.00,Monday
9,30585436.1708723
349,543440.659103039
380,0.0
2,2, 1, 2, 0,17,30.00,45.00,Monday
9,30585436.1708723
349,534261.178945827
380,0.0
2,2, 1, 2, 0,17,45.00,60.00,Monday
9,30585436.1708723
349,529173.985567737
380,0.0
2,2, 1, 2, 0,18, 0.00,15.00,Monday
9,25164300.3286006
349,735386.896095206
380,0.0
2,2, 1, 2, 0,18,15.00,30.00,Monday
9,25164300.3286006
349,736276.517396972
380,0.0
2,2, 1, 2, 0,18,30.00,45.00,Monday
9,25164300.3286006
349,741882.328997249
380,0.0
2,2, 1, 2, 0,18,45.00,60.00,Monday
9,25164300.3286006
349,752813.355154204
380,0.0
2,2, 1, 2, 0,19, 0.00,15.00,Monday
9,18367536.7350734
349,979952.849737914
380,0.0
2,2, 1, 2, 0,19,15.00,30.00,Monday
9,18367536.7350734
349,1002257.75861085
380,0.0
2,2, 1, 2, 0,19,30.00,45.00,Monday
9,18367536.7350734
349,1029390.83976996
380,0.0
2,2, 1, 2, 0,19,45.00,60.00,Monday
9,18367536.7350734
349,1061869.88461304
380,0.0
2,2, 1, 2, 0,20, 0.00,15.00,Monday
9,18367536.7350734
349,1081754.30340059
380,0.0
2,2, 1, 2, 0,20,15.00,30.00,Monday
9,18367536.7350734
349,1104505.14620986
380,0.0
2,2, 1, 2, 0,20,30.00,45.00,Monday
9,18367536.7350734
349,1128684.29082094
380,0.0
2,2, 1, 2, 0,20,45.00,60.00,Monday
9,18367536.7350734
349,1153251.49869658
380,0.0
2,2, 1, 2, 0,21, 0.00,15.00,Monday
9,12946400.8928018
349,1851196.2958976
380,0.0
2,2, 1, 2, 0,21,15.00,30.00,Monday
9,12946400.8928018
349,3845595.66109236
380,0.0
2,2, 1, 2, 0,21,30.00,45.00,Monday
9,12946400.8928018
349,3065091.54960753
380,0.0
2,2, 1, 2, 0,21,45.00,60.00,Monday
9,12946400.8928018
349,3416072.70374697
380,0.0
2,2, 1, 2, 0,22, 0.00,15.00,Monday
9,12946400.8928018
349,3729920.78488861
380,0.0
2,2, 1, 2, 0,22,15.00,30.00,Monday
9,12946400.8928018
349,4040909.85520803
380,0.0
2,2, 1, 2, 0,22,30.00,45.00,Monday
9,12946400.8928018
349,5299778.70170834
380,0.0
2,2, 1, 2, 0,22,45.00,60.00,Monday
9,12946400.8928018
349,5689440.4489182
380,0.0
2,2, 1, 2, 0,23, 0.00,15.00,Monday
9,7525265.05053009
349,0.0
380,0.0
2,2, 1, 2, 0,23,15.00,30.00,Monday
9,7525265.05053009
349,0.0
380,0.0
2,2, 1, 2, 0,23,30.00,45.00,Monday
9,7525265.05053009
349,0.0
380,0.0
2,2, 1, 2, 0,23,45.00,60.00,Monday
9,7525265.05053009
349,0.0
380,0.0
2,2, 1, 2, 0,24, 0.00,15.00,Monday
9,6513888.02777605
349,0.0
380,0.0
2,2, 1, 2, 0,24,15.00,30.00,Monday
9,6513888.02777605
349,0.0
380,0.0
2,2, 1, 2, 0,24,30.00,45.00,Monday
9,6513888.02777605
349,0.0
380,0.0
2,2, 1, 2, 0,24,45.00,60.00,Monday
9,6513888.02777605
349,0.0
380,0.0
2,3, 1, 3, 0, 1, 0.00,15.00,Tuesday
9,6513888.02777605
349,0.0
380,0.0
2,3, 1, 3, 0, 1,15.00,30.00,Tuesday
9,6513888.02777605
349,0.0
380,0.0
2,3, 1, 3, 0, 1,30.00,45.00,Tuesday
9,6513888.02777605
349,0.0
380,0.0
2,3, 1, 3, 0, 1,45.00,60.00,Tuesday
9,6513888.02777605
349,0.0
380,0.0
2,3, 1, 3, 0, 2, 0.00,15.00,Tuesday
9,6513888.02777605
349,0.0
380,0.0
2,3, 1, 3, 0, 2,15.00,30.00,Tuesday
9,6513888.02777605
349,0.0
380,0.0
2,3, 1, 3, 0, 2,30.00,45.00,Tuesday
9,6513888.02777605
349,0.0
380,0.0
2,3, 1, 3, 0, 2,45.00,60.00,Tuesday
9,6513888.02777605
349,0.0
380,0.0
2,3, 1, 3, 0, 3, 0.00,15.00,Tuesday
9,6513888.02777605
349,0.0
380,0.0
2,3, 1, 3, 0, 3,15.00,30.00,Tuesday
9,6513888.02777605
349,0.0
380,0.0
2,3, 1, 3, 0, 3,30.00,45.00,Tuesday
9,6513888.02777605
349,0.0
380,0.0
2,3, 1, 3, 0, 3,45.00,60.00,Tuesday
9,6513888.02777605
349,0.0
380,0.0
2,3, 1, 3, 0, 4, 0.00,15.00,Tuesday
9,6513888.02777605
349,0.0
380,0.0
2,3, 1, 3, 0, 4,15.00,30.00,Tuesday
9,6513888.02777605
349,0.0
380,0.0
2,3, 1, 3, 0, 4,30.00,45.00,Tuesday
9,6513888.02777605
349,0.0
380,0.0
2,3, 1, 3, 0, 4,45.00,60.00,Tuesday
9,6513888.02777605
349,0.0
380,0.0
2,3, 1, 3, 0, 5, 0.00,15.00,Tuesday
9,6513888.02777605
349,0.0
380,0.0
2,3, 1, 3, 0, 5,15.00,30.00,Tuesday
9,6513888.02777605
349,0.0
380,0.0
2,3, 1, 3, 0, 5,30.00,45.00,Tuesday
9,6513888.02777605
349,21416.2947067955
380,0.0
2,3, 1, 3, 0, 5,45.00,60.00,Tuesday
9,6513888.02777605
349,1369232.55100077
380,0.0
2,3, 1, 3, 0, 6, 0.00,15.00,Tuesday
9,7525265.05053009
349,895926.957226771
380,0.0
2,3, 1, 3, 0, 6,15.00,30.00,Tuesday
9,7525265.05053009
349,1573342.23738567
380,0.0
2,3, 1, 3, 0, 6,30.00,45.00,Tuesday
9,7525265.05053009
349,2063187.24715677
380,0.0
2,3, 1, 3, 0, 6,45.00,60.00,Tuesday
9,7525265.05053009
349,2520662.3824665
380,0.0
2,3, 1, 3, 0, 7, 0.00,15.00,Tuesday
9,7525265.05053009
349,92934396.3639742
380,0.0
2,3, 1, 3, 0, 7,15.00,30.00,Tuesday
9,7525265.05053009
349,39548613.9208251
380,0.0
2,3, 1, 3, 0, 7,30.00,45.00,Tuesday
9,7525265.05053009
349,68877336.9880925
380,0.0
2,3, 1, 3, 0, 7,45.00,60.00,Tuesday
9,7525265.05053009
349,38729743.923406
380,0.0
2,3, 1, 3, 0, 8, 0.00,15.00,Tuesday
9,11570773.1415463
349,36180041.0633215
380,0.0
2,3, 1, 3, 0, 8,15.00,30.00,Tuesday
9,11570773.1415463
349,34527863.3072911
380,0.0
2,3, 1, 3, 0, 8,30.00,45.00,Tuesday
9,11570773.1415463
349,32779231.8401321
380,0.0
2,3, 1, 3, 0, 8,45.00,60.00,Tuesday
9,11570773.1415463
349,31116791.875475
380,0.0
2,3, 1, 3, 0, 9, 0.00,15.00,Tuesday
9,30585436.1708723
349,19305086.1442626
380,0.0
2,3, 1, 3, 0, 9,15.00,30.00,Tuesday
9,30585436.1708723
349,17363660.0763309
380,0.0
2,3, 1, 3, 0, 9,30.00,45.00,Tuesday
9,30585436.1708723
349,15599702.4101591
380,0.0
2,3, 1, 3, 0, 9,45.00,60.00,Tuesday
9,30585436.1708723
349,13932202.7331978
380,0.0
2,3, 1, 3, 0,10, 0.00,15.00,Tuesday
9,30585436.1708723
349,12393854.3823769
380,0.0
2,3, 1, 3, 0,10,15.00,30.00,Tuesday
9,30585436.1708723
349,10926046.2873364
380,0.0
2,3, 1, 3, 0,10,30.00,45.00,Tuesday
9,30585436.1708723
349,9591817.58326313
380,0.0
2,3, 1, 3, 0,10,45.00,60.00,Tuesday
9,30585436.1708723
349,8390833.96557991
380,0.0
2,3, 1, 3, 0,11, 0.00,15.00,Tuesday
9,30585436.1708723
349,6684819.35959428
380,0.0
2,3, 1, 3, 0,11,15.00,30.00,Tuesday
9,30585436.1708723
349,5589054.35769332
380,0.0
2,3, 1, 3, 0,11,30.00,45.00,Tuesday
9,30585436.1708723
349,4695786.09943335
380,0.0
2,3, 1, 3, 0,11,45.00,60.00,Tuesday
9,30585436.1708723
349,3835052.54621362
380,0.0
2,3, 1, 3, 0,12, 0.00,15.00,Tuesday
9,30585436.1708723
349,3014990.49981815
380,0.0
2,3, 1, 3, 0,12,15.00,30.00,Tuesday
9,30585436.1708723
349,2137278.59546134
380,0.0
2,3, 1, 3, 0,12,30.00,45.00,Tuesday
9,30585436.1708723
349,1988713.42305295
380,0.0
2,3, 1, 3, 0,12,45.00,60.00,Tuesday
9,30585436.1708723
349,1900583.95542326
380,0.0
2,3, 1, 3, 0,13, 0.00,15.00,Tuesday
9,29209808.4196168
349,1809298.02197061
380,0.0
2,3, 1, 3, 0,13,15.00,30.00,Tuesday
9,29209808.4196168
349,1716485.20017169
380,0.0
2,3, 1, 3, 0,13,30.00,45.00,Tuesday
9,29209808.4196168
349,1621535.18614401
380,0.0
2,3, 1, 3, 0,13,45.00,60.00,Tuesday
9,29209808.4196168
349,1523885.81624439
380,0.0
2,3, 1, 3, 0,14, 0.00,15.00,Tuesday
9,30585436.1708723
349,1470014.05375662
380,0.0
2,3, 1, 3, 0,14,15.00,30.00,Tuesday
9,30585436.1708723
349,1413358.94358222
380,0.0
2,3, 1, 3, 0,14,30.00,45.00,Tuesday
9,30585436.1708723
349,1354660.67784985
380,0.0
2,3, 1, 3, 0,14,45.00,60.00,Tuesday
9,30585436.1708723
349,1294944.65445137
380,0.0
2,3, 1, 3, 0,15, 0.00,15.00,Tuesday
9,30585436.1708723
349,1235075.03132568
380,0.0
2,3, 1, 3, 0,15,15.00,30.00,Tuesday
9,30585436.1708723
349,1175975.01895875
380,0.0
2,3, 1, 3, 0,15,30.00,45.00,Tuesday
9,30585436.1708723
349,1117646.21672861
380,0.0
2,3, 1, 3, 0,15,45.00,60.00,Tuesday
9,30585436.1708723
349,1060552.24743492
380,0.0
2,3, 1, 3, 0,16, 0.00,15.00,Tuesday
9,30585436.1708723
349,1005309.53416738
380,0.0
2,3, 1, 3, 0,16,15.00,30.00,Tuesday
9,30585436.1708723
349,952537.218932787
380,0.0
2,3, 1, 3, 0,16,30.00,45.00,Tuesday
9,30585436.1708723
349,902723.384237997
380,0.0
2,3, 1, 3, 0,16,45.00,60.00,Tuesday
9,30585436.1708723
349,856456.013591097
380,0.0
2,3, 1, 3, 0,17, 0.00,15.00,Tuesday
9,30585436.1708723
349,847942.790189702
380,0.0
2,3, 1, 3, 0,17,15.00,30.00,Tuesday
9,30585436.1708723
349,844743.560174745
380,0.0
2,3, 1, 3, 0,17,30.00,45.00,Tuesday
9,30585436.1708723
349,847996.984331134
380,0.0
2,3, 1, 3, 0,17,45.00,60.00,Tuesday
9,30585436.1708723
349,857765.134408728
380,0.0
2,3, 1, 3, 0,18, 0.00,15.00,Tuesday
9,25164300.3286006
349,1082872.52170823
380,0.0
2,3, 1, 3, 0,18,15.00,30.00,Tuesday
9,25164300.3286006
349,1104748.30977417
380,0.0
2,3, 1, 3, 0,18,30.00,45.00,Tuesday
9,25164300.3286006
349,1133159.1182351
380,0.0
2,3, 1, 3, 0,18,45.00,60.00,Tuesday
9,25164300.3286006
349,1167993.74543523
380,0.0
2,3, 1, 3, 0,19, 0.00,15.00,Tuesday
9,18367536.7350734
349,1417889.04635461
380,0.0
2,3, 1, 3, 0,19,15.00,30.00,Tuesday
9,18367536.7350734
349,1494258.41568266
380,0.0
2,3, 1, 3, 0,19,30.00,45.00,Tuesday
9,18367536.7350734
349,3485688.43097878
380,0.0
2,3, 1, 3, 0,19,45.00,60.00,Tuesday
9,18367536.7350734
349,3055941.71071631
380,0.0
2,3, 1, 3, 0,20, 0.00,15.00,Tuesday
9,18367536.7350734
349,3591261.95763148
380,0.0
2,3, 1, 3, 0,20,15.00,30.00,Tuesday
9,18367536.7350734
349,4867763.32088226
380,0.0
2,3, 1, 3, 0,20,30.00,45.00,Tuesday
9,18367536.7350734
349,5558460.07553776
380,0.0
2,3, 1, 3, 0,20,45.00,60.00,Tuesday
9,18367536.7350734
349,6344816.78316659
380,0.0
2,3, 1, 3, 0,21, 0.00,15.00,Tuesday
9,12946400.8928018
349,9535923.03653394
380,0.0
2,3, 1, 3, 0,21,15.00,30.00,Tuesday
9,12946400.8928018
349,10235020.7107421
380,0.0
2,3, 1, 3, 0,21,30.00,45.00,Tuesday
9,12946400.8928018
349,10887331.232396
380,0.0
2,3, 1, 3, 0,21,45.00,60.00,Tuesday
9,12946400.8928018
349,11519194.8947785
380,0.0
2,3, 1, 3, 0,22, 0.00,15.00,Tuesday
9,12946400.8928018
349,12210101.0436947
380,0.0
2,3, 1, 3, 0,22,15.00,30.00,Tuesday
9,12946400.8928018
349,12892857.8474891
380,0.0
2,3, 1, 3, 0,22,30.00,45.00,Tuesday
9,12946400.8928018
349,13484526.8278453
380,0.0
2,3, 1, 3, 0,22,45.00,60.00,Tuesday
9,12946400.8928018
349,14115774.5413244
380,0.0
2,3, 1, 3, 0,23, 0.00,15.00,Tuesday
9,7525265.05053009
349,0.0
380,0.0
2,3, 1, 3, 0,23,15.00,30.00,Tuesday
9,7525265.05053009
349,0.0
380,0.0
2,3, 1, 3, 0,23,30.00,45.00,Tuesday
9,7525265.05053009
349,0.0
380,0.0
2,3, 1, 3, 0,23,45.00,60.00,Tuesday
9,7525265.05053009
349,0.0
380,0.0
2,3, 1, 3, 0,24, 0.00,15.00,Tuesday
9,6513888.02777605
349,0.0
380,0.0
2,3, 1, 3, 0,24,15.00,30.00,Tuesday
9,6513888.02777605
349,0.0
380,0.0
2,3, 1, 3, 0,24,30.00,45.00,Tuesday
9,6513888.02777605
349,0.0
380,0.0
2,3, 1, 3, 0,24,45.00,60.00,Tuesday
9,6513888.02777605
349,0.0
380,0.0
2,4, 1, 4, 0, 1, 0.00,15.00,Wednesday
9,6513888.02777605
349,0.0
380,0.0
2,4, 1, 4, 0, 1,15.00,30.00,Wednesday
9,6513888.02777605
349,0.0
380,0.0
2,4, 1, 4, 0, 1,30.00,45.00,Wednesday
9,6513888.02777605
349,0.0
380,0.0
2,4, 1, 4, 0, 1,45.00,60.00,Wednesday
9,6513888.02777605
349,0.0
380,0.0
2,4, 1, 4, 0, 2, 0.00,15.00,Wednesday
9,6513888.02777605
349,0.0
380,0.0
2,4, 1, 4, 0, 2,15.00,30.00,Wednesday
9,6513888.02777605
349,0.0
380,0.0
2,4, 1, 4, 0, 2,30.00,45.00,Wednesday
9,6513888.02777605
349,0.0
380,0.0
2,4, 1, 4, 0, 2,45.00,60.00,Wednesday
9,6513888.02777605
349,183180.447349947
380,0.0
2,4, 1, 4, 0, 3, 0.00,15.00,Wednesday
9,6513888.02777605
349,1268695.66774376
380,0.0
2,4, 1, 4, 0, 3,15.00,30.00,Wednesday
9,6513888.02777605
349,1338477.58688381
380,0.0
2,4, 1, 4, 0, 3,30.00,45.00,Wednesday
9,6513888.02777605
349,1916776.98149089
380,0.0
2,4, 1, 4, 0, 3,45.00,60.00,Wednesday
9,6513888.02777605
349,2327146.98191965
380,0.0
2,4, 1, 4, 0, 4, 0.00,15.00,Wednesday
9,6513888.02777605
349,2711712.59750842
380,0.0
2,4, 1, 4, 0, 4,15.00,30.00,Wednesday
9,6513888.02777605
349,3064679.91809658
380,0.0
2,4, 1, 4, 0, 4,30.00,45.00,Wednesday
9,6513888.02777605
349,3489344.32980196
380,0.0
2,4, 1, 4, 0, 4,45.00,60.00,Wednesday
9,6513888.02777605
349,3891749.34491349
380,0.0
2,4, 1, 4, 0, 5, 0.00,15.00,Wednesday
9,6513888.02777605
349,4310501.75708782
380,0.0
2,4, 1, 4, 0, 5,15.00,30.00,Wednesday
9,6513888.02777605
349,4578860.50707921
380,0.0
2,4, 1, 4, 0, 5,30.00,45.00,Wednesday
9,6513888.02777605
349,4821837.69021374
380,0.0
2,4, 1, 4, 0, 5,45.00,60.00,Wednesday
9,6513888.02777605
349,5064716.67213996
380,0.0
2,4, 1, 4, 0, 6, 0.00,15.00,Wednesday
9,7525265.05053009
349,4865833.9971088
380,0.0
2,4, 1, 4, 0, 6,15.00,30.00,Wednesday
9,7525265.05053009
349,5193238.53855602
380,0.0
2,4, 1, 4, 0, 6,30.00,45.00,Wednesday
9,7525265.05053009
349,5509244.02060518
380,0.0
2,4, 1, 4, 0, 6,45.00,60.00,Wednesday
9,7525265.05053009
349,5811880.27711959
380,0.0
2,4, 1, 4, 0, 7, 0.00,15.00,Wednesday
9,7525265.05053009
349,100682254.855164
380,0.0
2,4, 1, 4, 0, 7,15.00,30.00,Wednesday
9,7525265.05053009
349,45714097.7672936
380,0.0
2,4, 1, 4, 0, 7,30.00,45.00,Wednesday
9,7525265.05053009
349,74298601.3831433
380,0.0
2,4, 1, 4, 0, 7,45.00,60.00,Wednesday
9,7525265.05053009
349,43016701.7184321
380,0.0
2,4, 1, 4, 0, 8, 0.00,15.00,Wednesday
9,11570773.1415463
349,40044384.5073167
380,0.0
2,4, 1, 4, 0, 8,15.00,30.00,Wednesday
9,11570773.1415463
349,38242652.7494496
380,0.0
2,4, 1, 4, 0, 8,30.00,45.00,Wednesday
9,11570773.1415463
349,36403486.080693
380,0.0
2,4, 1, 4, 0, 8,45.00,60.00,Wednesday
9,11570773.1415463
349,34687799.5049848
380,0.0
2,4, 1, 4, 0, 9, 0.00,15.00,Wednesday
9,30585436.1708723
349,22468779.2963292
380,0.0
2,4, 1, 4, 0, 9,15.00,30.00,Wednesday
9,30585436.1708723
349,20705033.7002734
380,0.0
2,4, 1, 4, 0, 9,30.00,45.00,Wednesday
9,30585436.1708723
349,18982223.5622239
380,0.0
2,4, 1, 4, 0, 9,45.00,60.00,Wednesday
9,30585436.1708723
349,17390986.9192779
380,0.0
2,4, 1, 4, 0,10, 0.00,15.00,Wednesday
9,30585436.1708723
349,15903533.523349
380,0.0
2,4, 1, 4, 0,10,15.00,30.00,Wednesday
9,30585436.1708723
349,14493444.2681119
380,0.0
2,4, 1, 4, 0,10,30.00,45.00,Wednesday
9,30585436.1708723
349,13269586.5187887
380,0.0
2,4, 1, 4, 0,10,45.00,60.00,Wednesday
9,30585436.1708723
349,12094479.1077258
380,0.0
2,4, 1, 4, 0,11, 0.00,15.00,Wednesday
9,30585436.1708723
349,10948376.7266993
380,0.0
2,4, 1, 4, 0,11,15.00,30.00,Wednesday
9,30585436.1708723
349,9881739.61327339
380,0.0
2,4, 1, 4, 0,11,30.00,45.00,Wednesday
9,30585436.1708723
349,8948581.61895238
380,0.0
2,4, 1, 4, 0,11,45.00,60.00,Wednesday
9,30585436.1708723
349,8084207.76505175
380,0.0
2,4, 1, 4, 0,12, 0.00,15.00,Wednesday
9,30585436.1708723
349,7301093.3835462
380,0.0
2,4, 1, 4, 0,12,15.00,30.00,Wednesday
9,30585436.1708723
349,6425538.92970902
380,0.0
2,4, 1, 4, 0,12,30.00,45.00,Wednesday
9,30585436.1708723
349,5879732.36970679
380,0.0
2,4, 1, 4, 0,12,45.00,60.00,Wednesday
9,30585436.1708723
349,5334059.16985301
380,0.0
2,4, 1, 4, 0,13, 0.00,15.00,Wednesday
9,29209808.4196168
349,4089619.943128
380,0.0
2,4, 1, 4, 0,13,15.00,30.00,Wednesday
9,29209808.4196168
349,3622478.23049011
380,0.0
2,4, 1, 4, 0,13,30.00,45.00,Wednesday
9,29209808.4196168
349,3143711.37589071
380,0.0
2,4, 1, 4, 0,13,45.00,60.00,Wednesday
9,29209808.4196168
349,2661200.21013289
380,0.0
2,4, 1, 4, 0,14, 0.00,15.00,Wednesday
9,30585436.1708723
349,2915297.87176998
380,0.0
2,4, 1, 4, 0,14,15.00,30.00,Wednesday
9,30585436.1708723
349,2615442.78082928
380,0.0
2,4, 1, 4, 0,14,30.00,45.00,Wednesday
9,30585436.1708723
349,2312629.3772772
380,0.0
2,4, 1, 4, 0,14,45.00,60.00,Wednesday
9,30585436.1708723
349,2010585.55924229
380,0.0
2,4, 1, 4, 0,15, 0.00,15.00,Wednesday
9,30585436.1708723
349,1841718.5582613
380,0.0
2,4, 1, 4, 0,15,15.00,30.00,Wednesday
9,30585436.1708723
349,1807120.34583182
380,0.0
2,4, 1, 4, 0,15,30.00,45.00,Wednesday
9,30585436.1708723
349,1773253.07851282
380,0.0
2,4, 1, 4, 0,15,45.00,60.00,Wednesday
9,30585436.1708723
349,1740251.24874312
380,0.0
2,4, 1, 4, 0,16, 0.00,15.00,Wednesday
9,30585436.1708723
349,1710345.36424584
380,0.0
2,4, 1, 4, 0,16,15.00,30.00,Wednesday
9,30585436.1708723
349,1682482.39206526
380,0.0
2,4, 1, 4, 0,16,30.00,45.00,Wednesday
9,30585436.1708723
349,1655911.16593335
380,0.0
2,4, 1, 4, 0,16,45.00,60.00,Wednesday
9,30585436.1708723
349,1631657.5180918
380,0.0
2,4, 1, 4, 0,17, 0.00,15.00,Wednesday
9,30585436.1708723
349,1648153.63292212
380,0.0
2,4, 1, 4, 0,17,15.00,30.00,Wednesday
9,30585436.1708723
349,1669159.61557692
380,0.0
2,4, 1, 4, 0,17,30.00,45.00,Wednesday
9,30585436.1708723
349,2466193.98534005
380,0.0
2,4, 1, 4, 0,17,45.00,60.00,Wednesday
9,30585436.1708723
349,3293991.21379758
380,0.0
2,4, 1, 4, 0,18, 0.00,15.00,Wednesday
9,25164300.3286006
349,7814950.52601573
380,0.0
2,4, 1, 4, 0,18,15.00,30.00,Wednesday
9,25164300.3286006
349,9852693.76219843
380,0.0
2,4, 1, 4, 0,18,30.00,45.00,Wednesday
9,25164300.3286006
349,10516236.8378014
380,0.0
2,4, 1, 4, 0,18,45.00,60.00,Wednesday
9,25164300.3286006
349,11774631.5662439
380,0.0