Program Version,EnergyPlus, Version 8.5.0-c87e61b44b, YMD=2018.02.19 10:37
1,5,Environment Title[],Latitude[deg],Longitude[deg],Time Zone[],Elevation[m]
2,6,Day of Simulation[],Month[],Day of Month[],DST Indicator[1=yes 0=no],Hour[],StartMinute[],EndMinute[],DayType
3,3,Cumulative Day of Simulation[],Month[],Day of Month[],DST Indicator[1=yes 0=no],DayType  ! When Daily Meters Requested
4,2,Cumulative Days of Simulation[],Month[]  ! When Monthly Meters Requested
5,1,Cumulative Days of Simulation[] ! When Run Period Meters Requested
9,1,Electricity:Facility [J] !TimeStep
391,1,DistrictCooling:Facility [J] !TimeStep
360,1,DistrictHeating:Facility [J] !TimeStep
End of Data Dictionary
1,RUN PERIOD 1,  44.92,   9.73,   1.00, 134.00
2,1, 1, 1, 0, 1, 0.00,15.00,Sunday
9,4346763.68440696
360,36141725.2695016
391,0.0
2,1, 1, 1, 0, 1,15.00,30.00,Sunday
9,4346763.68440696
360,37498804.1799942
391,0.0
2,1, 1, 1, 0, 1,30.00,45.00,Sunday
9,4346763.68440696
360,38924479.3408335
391,0.0
2,1, 1, 1, 0, 1,45.00,60.00,Sunday
9,4346763.68440696
360,40412148.8913175
391,0.0
2,1, 1, 1, 0, 2, 0.00,15.00,Sunday
9,4346763.68440696
360,40680302.5158772
391,0.0
2,1, 1, 1, 0, 2,15.00,30.00,Sunday
9,4346763.68440696
360,40918327.3246074
391,0.0
2,1, 1, 1, 0, 2,30.00,45.00,Sunday
9,4346763.68440696
360,41138567.2390834
391,0.0
2,1, 1, 1, 0, 2,45.00,60.00,Sunday
9,4346763.68440696
360,41342552.9702958
391,0.0
2,1, 1, 1, 0, 3, 0.00,15.00,Sunday
9,4346763.68440696
360,41641817.379649
391,0.0
2,1, 1, 1, 0, 3,15.00,30.00,Sunday
9,4346763.68440696
360,41934104.9110031
391,0.0
2,1, 1, 1, 0, 3,30.00,45.00,Sunday
9,4346763.68440696
360,42216886.287439
391,0.0
2,1, 1, 1, 0, 3,45.00,60.00,Sunday
9,4346763.68440696
360,42495577.0170109
391,0.0
2,1, 1, 1, 0, 4, 0.00,15.00,Sunday
9,4346763.68440696
360,42753637.059074
391,0.0
2,1, 1, 1, 0, 4,15.00,30.00,Sunday
9,4346763.68440696
360,43007910.9141188
391,0.0
2,1, 1, 1, 0, 4,30.00,45.00,Sunday
9,4346763.68440696
360,43258442.5000008
391,0.0
2,1, 1, 1, 0, 4,45.00,60.00,Sunday
9,4346763.68440696
360,43505536.8162745
391,0.0
2,1, 1, 1, 0, 5, 0.00,15.00,Sunday
9,4346763.68440696
360,43626557.0017226
391,0.0
2,1, 1, 1, 0, 5,15.00,30.00,Sunday
9,4346763.68440696
360,43731734.5616069
391,0.0
2,1, 1, 1, 0, 5,30.00,45.00,Sunday
9,4346763.68440696
360,43819309.5485212
391,0.0
2,1, 1, 1, 0, 5,45.00,60.00,Sunday
9,4346763.68440696
360,43889795.8311241
391,0.0
2,1, 1, 1, 0, 6, 0.00,15.00,Sunday
9,4346763.68440696
360,44041296.4344804
391,0.0
2,1, 1, 1, 0, 6,15.00,30.00,Sunday
9,4346763.68440696
360,44187166.6143644
391,0.0
2,1, 1, 1, 0, 6,30.00,45.00,Sunday
9,4346763.68440696
360,44329942.7941255
391,0.0
2,1, 1, 1, 0, 6,45.00,60.00,Sunday
9,4346763.68440696
360,44470408.1689593
391,0.0
2,1, 1, 1, 0, 7, 0.00,15.00,Sunday
9,4346763.68440696
360,44555559.0482724
391,0.0
2,1, 1, 1, 0, 7,15.00,30.00,Sunday
9,4346763.68440696
360,44631594.0386181
391,0.0
2,1, 1, 1, 0, 7,30.00,45.00,Sunday
9,4346763.68440696
360,44701270.7856215
391,0.0
2,1, 1, 1, 0, 7,45.00,60.00,Sunday
9,4346763.68440696
360,44761734.1741726
391,0.0
2,1, 1, 1, 0, 8, 0.00,15.00,Sunday
9,4346763.68440696
360,44732379.1244613
391,0.0
2,1, 1, 1, 0, 8,15.00,30.00,Sunday
9,4346763.68440696
360,44694825.0715215
391,0.0
2,1, 1, 1, 0, 8,30.00,45.00,Sunday
9,4346763.68440696
360,44646623.1442902
391,0.0
2,1, 1, 1, 0, 8,45.00,60.00,Sunday
9,4346763.68440696
360,44588851.6296524
391,0.0
2,1, 1, 1, 0, 9, 0.00,15.00,Sunday
9,4346763.68440696
360,44065885.3627597
391,0.0
2,1, 1, 1, 0, 9,15.00,30.00,Sunday
9,4346763.68440696
360,43612113.9487001
391,0.0
2,1, 1, 1, 0, 9,30.00,45.00,Sunday
9,4346763.68440696
360,42969073.9243057
391,0.0
2,1, 1, 1, 0, 9,45.00,60.00,Sunday
9,4346763.68440696
360,42230152.1188711
391,0.0
2,1, 1, 1, 0,10, 0.00,15.00,Sunday
9,4346763.68440696
360,41649743.1983381
391,0.0
2,1, 1, 1, 0,10,15.00,30.00,Sunday
9,4346763.68440696
360,41012196.7312362
391,0.0
2,1, 1, 1, 0,10,30.00,45.00,Sunday
9,4346763.68440696
360,40366560.0527739
391,0.0
2,1, 1, 1, 0,10,45.00,60.00,Sunday
9,4346763.68440696
360,39696979.257664
391,0.0
2,1, 1, 1, 0,11, 0.00,15.00,Sunday
9,4346763.68440696
360,39031564.5429487
391,0.0
2,1, 1, 1, 0,11,15.00,30.00,Sunday
9,4346763.68440696
360,38344767.3211754
391,0.0
2,1, 1, 1, 0,11,30.00,45.00,Sunday
9,4346763.68440696
360,37687170.4980922
391,0.0
2,1, 1, 1, 0,11,45.00,60.00,Sunday
9,4346763.68440696
360,37039392.2300704
391,0.0
2,1, 1, 1, 0,12, 0.00,15.00,Sunday
9,4346763.68440696
360,36329013.8977304
391,0.0
2,1, 1, 1, 0,12,15.00,30.00,Sunday
9,4346763.68440696
360,35495795.7155205
391,0.0
2,1, 1, 1, 0,12,30.00,45.00,Sunday
9,4346763.68440696
360,34758218.5156133
391,0.0
2,1, 1, 1, 0,12,45.00,60.00,Sunday
9,4346763.68440696
360,34034025.5929296
391,0.0
2,1, 1, 1, 0,13, 0.00,15.00,Sunday
9,4346763.68440696
360,33574985.4135514
391,0.0
2,1, 1, 1, 0,13,15.00,30.00,Sunday
9,4346763.68440696
360,33152237.623946
391,0.0
2,1, 1, 1, 0,13,30.00,45.00,Sunday
9,4346763.68440696
360,32830118.2180572
391,0.0
2,1, 1, 1, 0,13,45.00,60.00,Sunday
9,4346763.68440696
360,32580948.1942932
391,0.0
2,1, 1, 1, 0,14, 0.00,15.00,Sunday
9,4346763.68440696
360,32039129.2059485
391,0.0
2,1, 1, 1, 0,14,15.00,30.00,Sunday
9,4346763.68440696
360,31632687.2297016
391,0.0
2,1, 1, 1, 0,14,30.00,45.00,Sunday
9,4346763.68440696
360,31339934.2901239
391,0.0
2,1, 1, 1, 0,14,45.00,60.00,Sunday
9,4346763.68440696
360,31119320.5917616
391,0.0
2,1, 1, 1, 0,15, 0.00,15.00,Sunday
9,4346763.68440696
360,30860776.6885875
391,0.0
2,1, 1, 1, 0,15,15.00,30.00,Sunday
9,4346763.68440696
360,30616605.8063803
391,0.0
2,1, 1, 1, 0,15,30.00,45.00,Sunday
9,4346763.68440696
360,30464350.9541437
391,0.0
2,1, 1, 1, 0,15,45.00,60.00,Sunday
9,4346763.68440696
360,30395077.7009268
391,0.0
2,1, 1, 1, 0,16, 0.00,15.00,Sunday
9,4346763.68440696
360,30138951.2509117
391,0.0
2,1, 1, 1, 0,16,15.00,30.00,Sunday
9,4346763.68440696
360,29917387.8419314
391,0.0
2,1, 1, 1, 0,16,30.00,45.00,Sunday
9,4346763.68440696
360,29731225.9562222
391,0.0
2,1, 1, 1, 0,16,45.00,60.00,Sunday
9,4346763.68440696
360,29566896.0465675
391,0.0
2,1, 1, 1, 0,17, 0.00,15.00,Sunday
9,4346763.68440696
360,29883866.1824571
391,0.0
2,1, 1, 1, 0,17,15.00,30.00,Sunday
9,4346763.68440696
360,30282343.4386614
391,0.0
2,1, 1, 1, 0,17,30.00,45.00,Sunday
9,4346763.68440696
360,30688996.5884768
391,0.0
2,1, 1, 1, 0,17,45.00,60.00,Sunday
9,4346763.68440696
360,31010407.6009548
391,0.0
2,1, 1, 1, 0,18, 0.00,15.00,Sunday
9,4346763.68440696
360,31297732.8028582
391,0.0
2,1, 1, 1, 0,18,15.00,30.00,Sunday
9,4346763.68440696
360,31558655.2618894
391,0.0
2,1, 1, 1, 0,18,30.00,45.00,Sunday
9,4346763.68440696
360,31772431.2099832
391,0.0
2,1, 1, 1, 0,18,45.00,60.00,Sunday
9,4346763.68440696
360,31955911.9843373
391,0.0
2,1, 1, 1, 0,19, 0.00,15.00,Sunday
9,4346763.68440696
360,32137996.5239622
391,0.0
2,1, 1, 1, 0,19,15.00,30.00,Sunday
9,4346763.68440696
360,32274373.6924299
391,0.0
2,1, 1, 1, 0,19,30.00,45.00,Sunday
9,4346763.68440696
360,32365930.9752246
391,0.0
2,1, 1, 1, 0,19,45.00,60.00,Sunday
9,4346763.68440696
360,32414226.9259578
391,0.0
2,1, 1, 1, 0,20, 0.00,15.00,Sunday
9,4346763.68440696
360,32493979.4086077
391,0.0
2,1, 1, 1, 0,20,15.00,30.00,Sunday
9,4346763.68440696
360,32537077.3061958
391,0.0
2,1, 1, 1, 0,20,30.00,45.00,Sunday
9,4346763.68440696
360,32577363.6934587
391,0.0
2,1, 1, 1, 0,20,45.00,60.00,Sunday
9,4346763.68440696
360,32602050.3013649
391,0.0
2,1, 1, 1, 0,21, 0.00,15.00,Sunday
9,4346763.68440696
360,32791931.4973416
391,0.0
2,1, 1, 1, 0,21,15.00,30.00,Sunday
9,4346763.68440696
360,33009309.1038551
391,0.0
2,1, 1, 1, 0,21,30.00,45.00,Sunday
9,4346763.68440696
360,33227087.9026769
391,0.0
2,1, 1, 1, 0,21,45.00,60.00,Sunday
9,4346763.68440696
360,33443676.358519
391,0.0
2,1, 1, 1, 0,22, 0.00,15.00,Sunday
9,4346763.68440696
360,33613387.5626438
391,0.0
2,1, 1, 1, 0,22,15.00,30.00,Sunday
9,4346763.68440696
360,33774164.7808728
391,0.0
2,1, 1, 1, 0,22,30.00,45.00,Sunday
9,4346763.68440696
360,33948211.8509873
391,0.0
2,1, 1, 1, 0,22,45.00,60.00,Sunday
9,4346763.68440696
360,34158806.367748
391,0.0
2,1, 1, 1, 0,23, 0.00,15.00,Sunday
9,4346763.68440696
360,34265900.915902
391,0.0
2,1, 1, 1, 0,23,15.00,30.00,Sunday
9,4346763.68440696
360,34373619.2581472
391,0.0
2,1, 1, 1, 0,23,30.00,45.00,Sunday
9,4346763.68440696
360,34479736.3204667
391,0.0
2,1, 1, 1, 0,23,45.00,60.00,Sunday
9,4346763.68440696
360,34583738.3608728
391,0.0
2,1, 1, 1, 0,24, 0.00,15.00,Sunday
9,4346763.68440696
360,34658218.2466237
391,0.0
2,1, 1, 1, 0,24,15.00,30.00,Sunday
9,4346763.68440696
360,34729295.1540888
391,0.0
2,1, 1, 1, 0,24,30.00,45.00,Sunday
9,4346763.68440696
360,34797961.7387448
391,0.0
2,1, 1, 1, 0,24,45.00,60.00,Sunday
9,4346763.68440696
360,34864514.4820081
391,0.0
2,2, 1, 2, 0, 1, 0.00,15.00,Monday
9,5629002.11694391
360,33507147.5032753
391,0.0
2,2, 1, 2, 0, 1,15.00,30.00,Monday
9,5629002.11694391
360,33416405.9816089
391,0.0
2,2, 1, 2, 0, 1,30.00,45.00,Monday
9,5629002.11694391
360,33309155.1407975
391,0.0
2,2, 1, 2, 0, 1,45.00,60.00,Monday
9,5629002.11694391
360,33185893.9470001
391,0.0
2,2, 1, 2, 0, 2, 0.00,15.00,Monday
9,5629002.11694391
360,33332334.7166813
391,0.0
2,2, 1, 2, 0, 2,15.00,30.00,Monday
9,5629002.11694391
360,33492120.1016864
391,0.0
2,2, 1, 2, 0, 2,30.00,45.00,Monday
9,5629002.11694391
360,33668691.7068968
391,0.0
2,2, 1, 2, 0, 2,45.00,60.00,Monday
9,5629002.11694391
360,33861580.1780304
391,0.0
2,2, 1, 2, 0, 3, 0.00,15.00,Monday
9,5629002.11694391
360,33822929.0264941
391,0.0
2,2, 1, 2, 0, 3,15.00,30.00,Monday
9,5629002.11694391
360,33773134.1018863
391,0.0
2,2, 1, 2, 0, 3,30.00,45.00,Monday
9,5629002.11694391
360,33704873.2815691
391,0.0
2,2, 1, 2, 0, 3,45.00,60.00,Monday
9,5629002.11694391
360,33620448.2635551
391,0.0
2,2, 1, 2, 0, 4, 0.00,15.00,Monday
9,5629002.11694391
360,33634771.3921603
391,0.0
2,2, 1, 2, 0, 4,15.00,30.00,Monday
9,5629002.11694391
360,33647322.1743795
391,0.0
2,2, 1, 2, 0, 4,30.00,45.00,Monday
9,5629002.11694391
360,33658584.0751293
391,0.0
2,2, 1, 2, 0, 4,45.00,60.00,Monday
9,5629002.11694391
360,33669060.5506881
391,0.0
2,2, 1, 2, 0, 5, 0.00,15.00,Monday
9,5629002.11694391
360,33619319.4118163
391,0.0
2,2, 1, 2, 0, 5,15.00,30.00,Monday
9,5629002.11694391
360,33566164.3082213
391,0.0
2,2, 1, 2, 0, 5,30.00,45.00,Monday
9,5629002.11694391
360,33512254.4910422
391,0.0
2,2, 1, 2, 0, 5,45.00,60.00,Monday
9,5629002.11694391
360,33457734.7851437
391,0.0
2,2, 1, 2, 0, 6, 0.00,15.00,Monday
9,6129050.50374002
360,32734233.4088547
391,0.0
2,2, 1, 2, 0, 6,15.00,30.00,Monday
9,6129050.50374002
360,32497474.250722
391,0.0
2,2, 1, 2, 0, 6,30.00,45.00,Monday
9,6129050.50374002
360,32245196.9762923
391,0.0
2,2, 1, 2, 0, 6,45.00,60.00,Monday
9,6129050.50374002
360,31978169.0915978
391,0.0
2,2, 1, 2, 0, 7, 0.00,15.00,Monday
9,6129050.50374002
360,190598429.291752
391,0.0
2,2, 1, 2, 0, 7,15.00,30.00,Monday
9,6129050.50374002
360,86547566.0804271
391,0.0
2,2, 1, 2, 0, 7,30.00,45.00,Monday
9,6129050.50374002
360,127230775.071268
391,0.0
2,2, 1, 2, 0, 7,45.00,60.00,Monday
9,6129050.50374002
360,79037578.2355565
391,0.0
2,2, 1, 2, 0, 8, 0.00,15.00,Monday
9,8129244.05092447
360,78506119.7101945
391,0.0
2,2, 1, 2, 0, 8,15.00,30.00,Monday
9,8129244.05092447
360,75011961.9365686
391,0.0
2,2, 1, 2, 0, 8,30.00,45.00,Monday
9,8129244.05092447
360,72208191.447504
391,0.0
2,2, 1, 2, 0, 8,45.00,60.00,Monday
9,8129244.05092447
360,69932224.3787068
391,0.0
2,2, 1, 2, 0, 9, 0.00,15.00,Monday
9,20541016.8551626
360,62193467.4957993
391,0.0
2,2, 1, 2, 0, 9,15.00,30.00,Monday
9,20541016.8551626
360,59940466.8941841
391,0.0
2,2, 1, 2, 0, 9,30.00,45.00,Monday
9,20541016.8551626
360,57923055.6183863
391,0.0
2,2, 1, 2, 0, 9,45.00,60.00,Monday
9,20541016.8551626
360,56031222.9886898
391,0.0
2,2, 1, 2, 0,10, 0.00,15.00,Monday
9,20541016.8551626
360,54410407.7769837
391,0.0
2,2, 1, 2, 0,10,15.00,30.00,Monday
9,20541016.8551626
360,52875570.0355989
391,0.0
2,2, 1, 2, 0,10,30.00,45.00,Monday
9,20541016.8551626
360,51422281.8285481
391,0.0
2,2, 1, 2, 0,10,45.00,60.00,Monday
9,20541016.8551626
360,50030922.0965928
391,0.0
2,2, 1, 2, 0,11, 0.00,15.00,Monday
9,20541016.8551626
360,48633175.2797407
391,0.0
2,2, 1, 2, 0,11,15.00,30.00,Monday
9,20541016.8551626
360,47281060.5080028
391,0.0
2,2, 1, 2, 0,11,30.00,45.00,Monday
9,20541016.8551626
360,46077717.5699028
391,0.0
2,2, 1, 2, 0,11,45.00,60.00,Monday
9,20541016.8551626
360,44926548.854547
391,0.0
2,2, 1, 2, 0,12, 0.00,15.00,Monday
9,20541016.8551626
360,43819031.033162
391,0.0
2,2, 1, 2, 0,12,15.00,30.00,Monday
9,20541016.8551626
360,42755561.7181992
391,0.0
2,2, 1, 2, 0,12,30.00,45.00,Monday
9,20541016.8551626
360,41752841.9936829
391,0.0
2,2, 1, 2, 0,12,45.00,60.00,Monday
9,20541016.8551626
360,40806673.7512323
391,0.0
2,2, 1, 2, 0,13, 0.00,15.00,Monday
9,19258778.4226256
360,40895587.945539
391,0.0
2,2, 1, 2, 0,13,15.00,30.00,Monday
9,19258778.4226256
360,39698941.9081023
391,0.0
2,2, 1, 2, 0,13,30.00,45.00,Monday
9,19258778.4226256
360,38552201.8556942
391,0.0
2,2, 1, 2, 0,13,45.00,60.00,Monday
9,19258778.4226256
360,37438208.4819879
391,0.0
2,2, 1, 2, 0,14, 0.00,15.00,Monday
9,20541016.8551626
360,35493425.1328525
391,0.0
2,2, 1, 2, 0,14,15.00,30.00,Monday
9,20541016.8551626
360,34848273.4436204
391,0.0
2,2, 1, 2, 0,14,30.00,45.00,Monday
9,20541016.8551626
360,34279658.641455
391,0.0
2,2, 1, 2, 0,14,45.00,60.00,Monday
9,20541016.8551626
360,33758769.3889027
391,0.0
2,2, 1, 2, 0,15, 0.00,15.00,Monday
9,20541016.8551626
360,33289476.1646669
391,0.0
2,2, 1, 2, 0,15,15.00,30.00,Monday
9,20541016.8551626
360,32869034.0048645
391,0.0
2,2, 1, 2, 0,15,30.00,45.00,Monday
9,20541016.8551626
360,32529090.409673
391,0.0
2,2, 1, 2, 0,15,45.00,60.00,Monday
9,20541016.8551626
360,32256035.459368
391,0.0
2,2, 1, 2, 0,16, 0.00,15.00,Monday
9,20541016.8551626
360,31989460.4614473
391,0.0
2,2, 1, 2, 0,16,15.00,30.00,Monday
9,20541016.8551626
360,31709697.8868165
391,0.0
2,2, 1, 2, 0,16,30.00,45.00,Monday
9,20541016.8551626
360,31462709.3476763
391,0.0
2,2, 1, 2, 0,16,45.00,60.00,Monday
9,20541016.8551626
360,31239587.5347637
391,0.0
2,2, 1, 2, 0,17, 0.00,15.00,Monday
9,20541016.8551626
360,31369640.6770032
391,0.0
2,2, 1, 2, 0,17,15.00,30.00,Monday
9,20541016.8551626
360,31552248.1532891
391,0.0
2,2, 1, 2, 0,17,30.00,45.00,Monday
9,20541016.8551626
360,31781434.470419
391,0.0
2,2, 1, 2, 0,17,45.00,60.00,Monday
9,20541016.8551626
360,31952175.857075
391,0.0
2,2, 1, 2, 0,18, 0.00,15.00,Monday
9,17258584.8754412
360,35399546.1390531
391,0.0
2,2, 1, 2, 0,18,15.00,30.00,Monday
9,17258584.8754412
360,35532386.2188638
391,0.0
2,2, 1, 2, 0,18,30.00,45.00,Monday
9,17258584.8754412
360,35642386.0034228
391,0.0
2,2, 1, 2, 0,18,45.00,60.00,Monday
9,17258584.8754412
360,35727619.5411728
391,0.0
2,2, 1, 2, 0,19, 0.00,15.00,Monday
9,12693914.4631828
360,40603888.0766226
391,0.0
2,2, 1, 2, 0,19,15.00,30.00,Monday
9,12693914.4631828
360,40919372.7321697
391,0.0
2,2, 1, 2, 0,19,30.00,45.00,Monday
9,12693914.4631828
360,41247489.7056316
391,0.0
2,2, 1, 2, 0,19,45.00,60.00,Monday
9,12693914.4631828
360,41614885.8220152
391,0.0
2,2, 1, 2, 0,20, 0.00,15.00,Monday
9,12693914.4631828
360,41678309.3204893
391,0.0
2,2, 1, 2, 0,20,15.00,30.00,Monday
9,12693914.4631828
360,41732940.8881132
391,0.0
2,2, 1, 2, 0,20,30.00,45.00,Monday
9,12693914.4631828
360,41781641.7118522
391,0.0
2,2, 1, 2, 0,20,45.00,60.00,Monday
9,12693914.4631828
360,41823852.232398
391,0.0
2,2, 1, 2, 0,21, 0.00,15.00,Monday
9,9411482.48346142
360,37372383.0835596
391,0.0
2,2, 1, 2, 0,21,15.00,30.00,Monday
9,9411482.48346142
360,37837843.4599283
391,0.0
2,2, 1, 2, 0,21,30.00,45.00,Monday
9,9411482.48346142
360,38223284.1306816
391,0.0
2,2, 1, 2, 0,21,45.00,60.00,Monday
9,9411482.48346142
360,38554865.1553025
391,0.0
2,2, 1, 2, 0,22, 0.00,15.00,Monday
9,9411482.48346142
360,38809349.490846
391,0.0
2,2, 1, 2, 0,22,15.00,30.00,Monday
9,9411482.48346142
360,39028019.2816972
391,0.0
2,2, 1, 2, 0,22,30.00,45.00,Monday
9,9411482.48346142
360,39229718.9223109
391,0.0
2,2, 1, 2, 0,22,45.00,60.00,Monday
9,9411482.48346142
360,39465798.9273908
391,0.0
2,2, 1, 2, 0,23, 0.00,15.00,Monday
9,6129050.50374002
360,0.0
391,0.0
2,2, 1, 2, 0,23,15.00,30.00,Monday
9,6129050.50374002
360,0.0
391,0.0
2,2, 1, 2, 0,23,30.00,45.00,Monday
9,6129050.50374002
360,0.0
391,0.0
2,2, 1, 2, 0,23,45.00,60.00,Monday
9,6129050.50374002
360,0.0
391,0.0
2,2, 1, 2, 0,24, 0.00,15.00,Monday
9,5629002.11694391
360,0.0
391,0.0
2,2, 1, 2, 0,24,15.00,30.00,Monday
9,5629002.11694391
360,0.0
391,0.0
2,2, 1, 2, 0,24,30.00,45.00,Monday
9,5629002.11694391
360,851343.68146371
391,0.0
2,2, 1, 2, 0,24,45.00,60.00,Monday
9,5629002.11694391
360,5390023.89038536
391,0.0
2,3, 1, 3, 0, 1, 0.00,15.00,Tuesday
9,5629002.11694391
360,7693098.29504356
391,0.0
2,3, 1, 3, 0, 1,15.00,30.00,Tuesday
9,5629002.11694391
360,9256922.4766884
391,0.0
2,3, 1, 3, 0, 1,30.00,45.00,Tuesday
9,5629002.11694391
360,9923970.17147113
391,0.0
2,3, 1, 3, 0, 1,45.00,60.00,Tuesday
9,5629002.11694391
360,10976066.841503
391,0.0
2,3, 1, 3, 0, 2, 0.00,15.00,Tuesday
9,5629002.11694391
360,11766352.6088633
391,0.0
2,3, 1, 3, 0, 2,15.00,30.00,Tuesday
9,5629002.11694391
360,13510026.2153638
391,0.0
2,3, 1, 3, 0, 2,30.00,45.00,Tuesday
9,5629002.11694391
360,13774621.085321
391,0.0
2,3, 1, 3, 0, 2,45.00,60.00,Tuesday
9,5629002.11694391
360,14773602.453908
391,0.0
2,3, 1, 3, 0, 3, 0.00,15.00,Tuesday
9,5629002.11694391
360,15544006.0545536
391,0.0
2,3, 1, 3, 0, 3,15.00,30.00,Tuesday
9,5629002.11694391
360,16245671.3953171
391,0.0
2,3, 1, 3, 0, 3,30.00,45.00,Tuesday
9,5629002.11694391
360,16891355.6750099
391,0.0
2,3, 1, 3, 0, 3,45.00,60.00,Tuesday
9,5629002.11694391
360,17487917.3392375
391,0.0
2,3, 1, 3, 0, 4, 0.00,15.00,Tuesday
9,5629002.11694391
360,17832701.0039758
391,0.0
2,3, 1, 3, 0, 4,15.00,30.00,Tuesday
9,5629002.11694391
360,18111077.338463
391,0.0
2,3, 1, 3, 0, 4,30.00,45.00,Tuesday
9,5629002.11694391
360,18322474.5592491
391,0.0
2,3, 1, 3, 0, 4,45.00,60.00,Tuesday
9,5629002.11694391
360,18491301.4009473
391,0.0
2,3, 1, 3, 0, 5, 0.00,15.00,Tuesday
9,5629002.11694391
360,18936779.6293222
391,0.0
2,3, 1, 3, 0, 5,15.00,30.00,Tuesday
9,5629002.11694391
360,19376299.4457456
391,0.0
2,3, 1, 3, 0, 5,30.00,45.00,Tuesday
9,5629002.11694391
360,19811374.7874802
391,0.0
2,3, 1, 3, 0, 5,45.00,60.00,Tuesday
9,5629002.11694391
360,20244065.9489884
391,0.0
2,3, 1, 3, 0, 6, 0.00,15.00,Tuesday
9,6129050.50374002
360,19968504.3185253
391,0.0
2,3, 1, 3, 0, 6,15.00,30.00,Tuesday
9,6129050.50374002
360,20164572.9489159
391,0.0
2,3, 1, 3, 0, 6,30.00,45.00,Tuesday
9,6129050.50374002
360,20337097.7410601
391,0.0
2,3, 1, 3, 0, 6,45.00,60.00,Tuesday
9,6129050.50374002
360,20487253.6782383
391,0.0
2,3, 1, 3, 0, 7, 0.00,15.00,Tuesday
9,6129050.50374002
360,177335662.62652
391,0.0
2,3, 1, 3, 0, 7,15.00,30.00,Tuesday
9,6129050.50374002
360,71918077.2826641
391,0.0
2,3, 1, 3, 0, 7,30.00,45.00,Tuesday
9,6129050.50374002
360,117915750.920812
391,0.0
2,3, 1, 3, 0, 7,45.00,60.00,Tuesday
9,6129050.50374002
360,67050788.0720991
391,0.0
2,3, 1, 3, 0, 8, 0.00,15.00,Tuesday
9,8129244.05092447
360,66900692.6533881
391,0.0
2,3, 1, 3, 0, 8,15.00,30.00,Tuesday
9,8129244.05092447
360,63798729.0456034
391,0.0
2,3, 1, 3, 0, 8,30.00,45.00,Tuesday
9,8129244.05092447
360,61315532.5004056
391,0.0
2,3, 1, 3, 0, 8,45.00,60.00,Tuesday
9,8129244.05092447
360,59310068.2767316
391,0.0
2,3, 1, 3, 0, 9, 0.00,15.00,Tuesday
9,20541016.8551626
360,51011958.8816198
391,0.0
2,3, 1, 3, 0, 9,15.00,30.00,Tuesday
9,20541016.8551626
360,49384602.7810133
391,0.0
2,3, 1, 3, 0, 9,30.00,45.00,Tuesday
9,20541016.8551626
360,48006263.1432398
391,0.0
2,3, 1, 3, 0, 9,45.00,60.00,Tuesday
9,20541016.8551626
360,46779194.8793099
391,0.0
2,3, 1, 3, 0,10, 0.00,15.00,Tuesday
9,20541016.8551626
360,45543357.5115588
391,0.0
2,3, 1, 3, 0,10,15.00,30.00,Tuesday
9,20541016.8551626
360,44382137.5702506
391,0.0
2,3, 1, 3, 0,10,30.00,45.00,Tuesday
9,20541016.8551626
360,43279311.1426728
391,0.0
2,3, 1, 3, 0,10,45.00,60.00,Tuesday
9,20541016.8551626
360,42215654.7176528
391,0.0
2,3, 1, 3, 0,11, 0.00,15.00,Tuesday
9,20541016.8551626
360,41130033.3312085
391,0.0
2,3, 1, 3, 0,11,15.00,30.00,Tuesday
9,20541016.8551626
360,40076441.0602677
391,0.0
2,3, 1, 3, 0,11,30.00,45.00,Tuesday
9,20541016.8551626
360,39095595.0951798
391,0.0
2,3, 1, 3, 0,11,45.00,60.00,Tuesday
9,20541016.8551626
360,38160340.3883259
391,0.0
2,3, 1, 3, 0,12, 0.00,15.00,Tuesday
9,20541016.8551626
360,36935401.8988568
391,0.0
2,3, 1, 3, 0,12,15.00,30.00,Tuesday
9,20541016.8551626
360,35726725.2784554
391,0.0
2,3, 1, 3, 0,12,30.00,45.00,Tuesday
9,20541016.8551626
360,34563935.8713944
391,0.0
2,3, 1, 3, 0,12,45.00,60.00,Tuesday
9,20541016.8551626
360,33424225.6482512
391,0.0
2,3, 1, 3, 0,13, 0.00,15.00,Tuesday
9,19258778.4226256
360,33378758.7193378
391,0.0
2,3, 1, 3, 0,13,15.00,30.00,Tuesday
9,19258778.4226256
360,32045332.3059443
391,0.0
2,3, 1, 3, 0,13,30.00,45.00,Tuesday
9,19258778.4226256
360,30751076.7612905
391,0.0
2,3, 1, 3, 0,13,45.00,60.00,Tuesday
9,19258778.4226256
360,29479409.2226683
391,0.0
2,3, 1, 3, 0,14, 0.00,15.00,Tuesday
9,20541016.8551626
360,27570905.3293885
391,0.0
2,3, 1, 3, 0,14,15.00,30.00,Tuesday
9,20541016.8551626
360,27004940.5669022
391,0.0
2,3, 1, 3, 0,14,30.00,45.00,Tuesday
9,20541016.8551626
360,26526738.463845
391,0.0
2,3, 1, 3, 0,14,45.00,60.00,Tuesday
9,20541016.8551626
360,26121429.5819296
391,0.0
2,3, 1, 3, 0,15, 0.00,15.00,Tuesday
9,20541016.8551626
360,25780517.2529497
391,0.0
2,3, 1, 3, 0,15,15.00,30.00,Tuesday
9,20541016.8551626
360,25491013.9207686
391,0.0
2,3, 1, 3, 0,15,30.00,45.00,Tuesday
9,20541016.8551626
360,25286455.7639515
391,0.0
2,3, 1, 3, 0,15,45.00,60.00,Tuesday
9,20541016.8551626
360,25152002.122884
391,0.0
2,3, 1, 3, 0,16, 0.00,15.00,Tuesday
9,20541016.8551626
360,25279568.4883604
391,0.0
2,3, 1, 3, 0,16,15.00,30.00,Tuesday
9,20541016.8551626
360,25476523.029714
391,0.0
2,3, 1, 3, 0,16,30.00,45.00,Tuesday
9,20541016.8551626
360,25740373.2453786
391,0.0
2,3, 1, 3, 0,16,45.00,60.00,Tuesday
9,20541016.8551626
360,26065164.8645171
391,0.0
2,3, 1, 3, 0,17, 0.00,15.00,Tuesday
9,20541016.8551626
360,26485644.2962392
391,0.0
2,3, 1, 3, 0,17,15.00,30.00,Tuesday
9,20541016.8551626
360,26955504.6334946
391,0.0
2,3, 1, 3, 0,17,30.00,45.00,Tuesday
9,20541016.8551626
360,27396683.5907357
391,0.0
2,3, 1, 3, 0,17,45.00,60.00,Tuesday
9,20541016.8551626
360,27903020.8423127
391,0.0
2,3, 1, 3, 0,18, 0.00,15.00,Tuesday
9,17258584.8754412
360,31991142.0745374
391,0.0
2,3, 1, 3, 0,18,15.00,30.00,Tuesday
9,17258584.8754412
360,32808424.8904335
391,0.0
2,3, 1, 3, 0,18,30.00,45.00,Tuesday
9,17258584.8754412
360,33643695.0795379
391,0.0
2,3, 1, 3, 0,18,45.00,60.00,Tuesday
9,17258584.8754412
360,34494655.0205314
391,0.0
2,3, 1, 3, 0,19, 0.00,15.00,Tuesday
9,12693914.4631828
360,39838292.8333785
391,0.0
2,3, 1, 3, 0,19,15.00,30.00,Tuesday
9,12693914.4631828
360,40607548.4837334
391,0.0
2,3, 1, 3, 0,19,30.00,45.00,Tuesday
9,12693914.4631828
360,41367820.8610015
391,0.0
2,3, 1, 3, 0,19,45.00,60.00,Tuesday
9,12693914.4631828
360,42118702.8143195
391,0.0
2,3, 1, 3, 0,20, 0.00,15.00,Tuesday
9,12693914.4631828
360,42851067.9861892
391,0.0
2,3, 1, 3, 0,20,15.00,30.00,Tuesday
9,12693914.4631828
360,43582230.4205226
391,0.0
2,3, 1, 3, 0,20,30.00,45.00,Tuesday
9,12693914.4631828
360,44313328.0887692
391,0.0
2,3, 1, 3, 0,20,45.00,60.00,Tuesday
9,12693914.4631828
360,45045254.604684
391,0.0
2,3, 1, 3, 0,21, 0.00,15.00,Tuesday
9,9411482.48346142
360,39481971.0532648
391,0.0
2,3, 1, 3, 0,21,15.00,30.00,Tuesday
9,9411482.48346142
360,40493680.6702488
391,0.0
2,3, 1, 3, 0,21,30.00,45.00,Tuesday
9,9411482.48346142
360,41473574.9269622
391,0.0
2,3, 1, 3, 0,21,45.00,60.00,Tuesday
9,9411482.48346142
360,42403715.8595582
391,0.0
2,3, 1, 3, 0,22, 0.00,15.00,Tuesday
9,9411482.48346142
360,43213749.7200659
391,0.0
2,3, 1, 3, 0,22,15.00,30.00,Tuesday
9,9411482.48346142
360,44072636.5564254
391,0.0
2,3, 1, 3, 0,22,30.00,45.00,Tuesday
9,9411482.48346142
360,44919386.4053809
391,0.0
2,3, 1, 3, 0,22,45.00,60.00,Tuesday
9,9411482.48346142
360,45759314.3563563
391,0.0
2,3, 1, 3, 0,23, 0.00,15.00,Tuesday
9,6129050.50374002
360,0.0
391,0.0
2,3, 1, 3, 0,23,15.00,30.00,Tuesday
9,6129050.50374002
360,0.0
391,0.0
2,3, 1, 3, 0,23,30.00,45.00,Tuesday
9,6129050.50374002
360,0.0
391,0.0
2,3, 1, 3, 0,23,45.00,60.00,Tuesday
9,6129050.50374002
360,0.0
391,0.0
2,3, 1, 3, 0,24, 0.00,15.00,Tuesday
9,5629002.11694391
360,2314094.08628584
391,0.0
2,3, 1, 3, 0,24,15.00,30.00,Tuesday
9,5629002.11694391
360,3700537.3407461
391,0.0
2,3, 1, 3, 0,24,30.00,45.00,Tuesday
9,5629002.11694391
360,11631031.4390684
391,0.0
2,3, 1, 3, 0,24,45.00,60.00,Tuesday
9,5629002.11694391
360,12929820.0304924
391,0.0
2,4, 1, 4, 0, 1, 0.00,15.00,Wednesday
9,5629002.11694391
360,13904774.7223307
391,0.0
2,4, 1, 4, 0, 1,15.00,30.00,Wednesday
9,5629002.11694391
360,14186725.7101335
391,0.0
2,4, 1, 4, 0, 1,30.00,45.00,Wednesday
9,5629002.11694391
360,15361647.9441916
391,0.0
2,4, 1, 4, 0, 1,45.00,60.00,Wednesday
9,5629002.11694391
360,16107531.091346
391,0.0
2,4, 1, 4, 0, 2, 0.00,15.00,Wednesday
9,5629002.11694391
360,16953379.1367222
391,0.0
2,4, 1, 4, 0, 2,15.00,30.00,Wednesday
9,5629002.11694391
360,17771537.4558644
391,0.0
2,4, 1, 4, 0, 2,30.00,45.00,Wednesday
9,5629002.11694391
360,18490979.5419686
391,0.0
2,4, 1, 4, 0, 2,45.00,60.00,Wednesday
9,5629002.11694391
360,19130196.7266411
391,0.0
2,4, 1, 4, 0, 3, 0.00,15.00,Wednesday
9,5629002.11694391
360,19754300.383771
391,0.0
2,4, 1, 4, 0, 3,15.00,30.00,Wednesday
9,5629002.11694391
360,20316461.7434412
391,0.0
2,4, 1, 4, 0, 3,30.00,45.00,Wednesday
9,5629002.11694391
360,20819494.1868721
391,0.0
2,4, 1, 4, 0, 3,45.00,60.00,Wednesday
9,5629002.11694391
360,21263934.7973253
391,0.0
2,4, 1, 4, 0, 4, 0.00,15.00,Wednesday
9,5629002.11694391
360,22003839.464253
391,0.0
2,4, 1, 4, 0, 4,15.00,30.00,Wednesday
9,5629002.11694391
360,22735695.2491983
391,0.0
2,4, 1, 4, 0, 4,30.00,45.00,Wednesday
9,5629002.11694391
360,23464053.6593596
391,0.0
2,4, 1, 4, 0, 4,45.00,60.00,Wednesday
9,5629002.11694391
360,24191410.1556763
391,0.0
2,4, 1, 4, 0, 5, 0.00,15.00,Wednesday
9,5629002.11694391
360,24678709.3115919
391,0.0
2,4, 1, 4, 0, 5,15.00,30.00,Wednesday
9,5629002.11694391
360,25146916.6677419
391,0.0
2,4, 1, 4, 0, 5,30.00,45.00,Wednesday
9,5629002.11694391
360,25597357.0655998
391,0.0
2,4, 1, 4, 0, 5,45.00,60.00,Wednesday
9,5629002.11694391
360,26031017.1488383
391,0.0
2,4, 1, 4, 0, 6, 0.00,15.00,Wednesday
9,6129050.50374002
360,26155099.1401554
391,0.0
2,4, 1, 4, 0, 6,15.00,30.00,Wednesday
9,6129050.50374002
360,26785485.499386
391,0.0
2,4, 1, 4, 0, 6,30.00,45.00,Wednesday
9,6129050.50374002
360,27422179.0158676
391,0.0
2,4, 1, 4, 0, 6,45.00,60.00,Wednesday
9,6129050.50374002
360,28065391.88281
391,0.0
2,4, 1, 4, 0, 7, 0.00,15.00,Wednesday
9,6129050.50374002
360,185383109.348265
391,0.0
2,4, 1, 4, 0, 7,15.00,30.00,Wednesday
9,6129050.50374002
360,81170823.1380024
391,0.0
2,4, 1, 4, 0, 7,30.00,45.00,Wednesday
9,6129050.50374002
360,124226786.168382
391,0.0
2,4, 1, 4, 0, 7,45.00,60.00,Wednesday
9,6129050.50374002
360,75357678.057201
391,0.0
2,4, 1, 4, 0, 8, 0.00,15.00,Wednesday
9,8129244.05092447
360,75822062.5510034
391,0.0
2,4, 1, 4, 0, 8,15.00,30.00,Wednesday
9,8129244.05092447
360,72682139.274926
391,0.0
2,4, 1, 4, 0, 8,30.00,45.00,Wednesday
9,8129244.05092447
360,70174899.2923495
391,0.0
2,4, 1, 4, 0, 8,45.00,60.00,Wednesday
9,8129244.05092447
360,68152729.9891137
391,0.0
2,4, 1, 4, 0, 9, 0.00,15.00,Wednesday
9,20541016.8551626
360,61684162.0729032
391,0.0
2,4, 1, 4, 0, 9,15.00,30.00,Wednesday
9,20541016.8551626
360,59831968.5752249
391,0.0
2,4, 1, 4, 0, 9,30.00,45.00,Wednesday
9,20541016.8551626
360,58229177.0321074
391,0.0
2,4, 1, 4, 0, 9,45.00,60.00,Wednesday
9,20541016.8551626
360,56780088.6694242
391,0.0
2,4, 1, 4, 0,10, 0.00,15.00,Wednesday
9,20541016.8551626
360,55334839.1379175
391,0.0
2,4, 1, 4, 0,10,15.00,30.00,Wednesday
9,20541016.8551626
360,53972177.1618858
391,0.0
2,4, 1, 4, 0,10,30.00,45.00,Wednesday
9,20541016.8551626
360,52675598.495752
391,0.0
2,4, 1, 4, 0,10,45.00,60.00,Wednesday
9,20541016.8551626
360,51426720.9963393
391,0.0
2,4, 1, 4, 0,11, 0.00,15.00,Wednesday
9,20541016.8551626
360,50449467.6314691
391,0.0
2,4, 1, 4, 0,11,15.00,30.00,Wednesday
9,20541016.8551626
360,49508077.3217654
391,0.0
2,4, 1, 4, 0,11,30.00,45.00,Wednesday
9,20541016.8551626
360,48636748.0145542
391,0.0
2,4, 1, 4, 0,11,45.00,60.00,Wednesday
9,20541016.8551626
360,47816812.9768816
391,0.0
2,4, 1, 4, 0,12, 0.00,15.00,Wednesday
9,20541016.8551626
360,46786931.3345755
391,0.0
2,4, 1, 4, 0,12,15.00,30.00,Wednesday
9,20541016.8551626
360,45773838.991635
391,0.0
2,4, 1, 4, 0,12,30.00,45.00,Wednesday
9,20541016.8551626
360,44801386.8228005
391,0.0
2,4, 1, 4, 0,12,45.00,60.00,Wednesday