Program Version,EnergyPlus, Version 8.5.0-c87e61b44b, YMD=2017.12.18 18:49
1,5,Environment Title[],Latitude[deg],Longitude[deg],Time Zone[],Elevation[m]
2,6,Day of Simulation[],Month[],Day of Month[],DST Indicator[1=yes 0=no],Hour[],StartMinute[],EndMinute[],DayType
3,3,Cumulative Day of Simulation[],Month[],Day of Month[],DST Indicator[1=yes 0=no],DayType  ! When Daily Meters Requested
4,2,Cumulative Days of Simulation[],Month[]  ! When Monthly Meters Requested
5,1,Cumulative Days of Simulation[] ! When Run Period Meters Requested
9,1,Electricity:Facility [J] !TimeStep
545,1,DistrictCooling:Facility [J] !TimeStep
514,1,DistrictHeating:Facility [J] !TimeStep
End of Data Dictionary
1,RUN PERIOD 1,  44.92,   9.73,   1.00, 134.00
2,1, 1, 1, 0, 1, 0.00,15.00,Sunday
9,4195896.12598403
514,23972776.7876243
545,0.0
2,1, 1, 1, 0, 1,15.00,30.00,Sunday
9,4195896.12598403
514,25274480.9531919
545,0.0
2,1, 1, 1, 0, 1,30.00,45.00,Sunday
9,4195896.12598403
514,26605913.6089492
545,0.0
2,1, 1, 1, 0, 1,45.00,60.00,Sunday
9,4195896.12598403
514,27960590.7648356
545,0.0
2,1, 1, 1, 0, 2, 0.00,15.00,Sunday
9,4195896.12598403
514,28038118.3902048
545,0.0
2,1, 1, 1, 0, 2,15.00,30.00,Sunday
9,4195896.12598403
514,28102123.9713486
545,0.0
2,1, 1, 1, 0, 2,30.00,45.00,Sunday
9,4195896.12598403
514,28149674.8348161
545,0.0
2,1, 1, 1, 0, 2,45.00,60.00,Sunday
9,4195896.12598403
514,28190907.8478664
545,0.0
2,1, 1, 1, 0, 3, 0.00,15.00,Sunday
9,4195896.12598403
514,28298228.8445135
545,0.0
2,1, 1, 1, 0, 3,15.00,30.00,Sunday
9,4195896.12598403
514,28401581.6113924
545,0.0
2,1, 1, 1, 0, 3,30.00,45.00,Sunday
9,4195896.12598403
514,28504830.4169723
545,0.0
2,1, 1, 1, 0, 3,45.00,60.00,Sunday
9,4195896.12598403
514,28608261.7815878
545,0.0
2,1, 1, 1, 0, 4, 0.00,15.00,Sunday
9,4195896.12598403
514,28700599.0070463
545,0.0
2,1, 1, 1, 0, 4,15.00,30.00,Sunday
9,4195896.12598403
514,28793027.3891494
545,0.0
2,1, 1, 1, 0, 4,30.00,45.00,Sunday
9,4195896.12598403
514,28884937.9156344
545,0.0
2,1, 1, 1, 0, 4,45.00,60.00,Sunday
9,4195896.12598403
514,28976509.6174142
545,0.0
2,1, 1, 1, 0, 5, 0.00,15.00,Sunday
9,4195896.12598403
514,28993109.2989208
545,0.0
2,1, 1, 1, 0, 5,15.00,30.00,Sunday
9,4195896.12598403
514,29008845.3153128
545,0.0
2,1, 1, 1, 0, 5,30.00,45.00,Sunday
9,4195896.12598403
514,29020088.3649906
545,0.0
2,1, 1, 1, 0, 5,45.00,60.00,Sunday
9,4195896.12598403
514,29027879.5444437
545,0.0
2,1, 1, 1, 0, 6, 0.00,15.00,Sunday
9,4195896.12598403
514,29091738.0339785
545,0.0
2,1, 1, 1, 0, 6,15.00,30.00,Sunday
9,4195896.12598403
514,29153869.6015899
545,0.0
2,1, 1, 1, 0, 6,30.00,45.00,Sunday
9,4195896.12598403
514,29217817.749898
545,0.0
2,1, 1, 1, 0, 6,45.00,60.00,Sunday
9,4195896.12598403
514,29282678.8513357
545,0.0
2,1, 1, 1, 0, 7, 0.00,15.00,Sunday
9,4195896.12598403
514,29313275.0714212
545,0.0
2,1, 1, 1, 0, 7,15.00,30.00,Sunday
9,4195896.12598403
514,29342453.7033919
545,0.0
2,1, 1, 1, 0, 7,30.00,45.00,Sunday
9,4195896.12598403
514,29371197.8390016
545,0.0
2,1, 1, 1, 0, 7,45.00,60.00,Sunday
9,4195896.12598403
514,29399276.4962828
545,0.0
2,1, 1, 1, 0, 8, 0.00,15.00,Sunday
9,4195896.12598403
514,29340936.6022652
545,0.0
2,1, 1, 1, 0, 8,15.00,30.00,Sunday
9,4195896.12598403
514,29280857.6800438
545,0.0
2,1, 1, 1, 0, 8,30.00,45.00,Sunday
9,4195896.12598403
514,29217652.542321
545,0.0
2,1, 1, 1, 0, 8,45.00,60.00,Sunday
9,4195896.12598403
514,29152319.5008347
545,0.0
2,1, 1, 1, 0, 9, 0.00,15.00,Sunday
9,4195896.12598403
514,28658003.084971
545,0.0
2,1, 1, 1, 0, 9,15.00,30.00,Sunday
9,4195896.12598403
514,28269659.2577793
545,0.0
2,1, 1, 1, 0, 9,30.00,45.00,Sunday
9,4195896.12598403
514,27734390.3905794
545,0.0
2,1, 1, 1, 0, 9,45.00,60.00,Sunday
9,4195896.12598403
514,27148779.9063116
545,0.0
2,1, 1, 1, 0,10, 0.00,15.00,Sunday
9,4195896.12598403
514,26686918.9996849
545,0.0
2,1, 1, 1, 0,10,15.00,30.00,Sunday
9,4195896.12598403
514,26208457.6591682
545,0.0
2,1, 1, 1, 0,10,30.00,45.00,Sunday
9,4195896.12598403
514,25764626.4505789
545,0.0
2,1, 1, 1, 0,10,45.00,60.00,Sunday
9,4195896.12598403
514,25324283.3725787
545,0.0
2,1, 1, 1, 0,11, 0.00,15.00,Sunday
9,4195896.12598403
514,24949826.674767
545,0.0
2,1, 1, 1, 0,11,15.00,30.00,Sunday
9,4195896.12598403
514,24570637.5341148
545,0.0
2,1, 1, 1, 0,11,30.00,45.00,Sunday
9,4195896.12598403
514,24237264.7984491
545,0.0
2,1, 1, 1, 0,11,45.00,60.00,Sunday
9,4195896.12598403
514,23919704.5391035
545,0.0
2,1, 1, 1, 0,12, 0.00,15.00,Sunday
9,4195896.12598403
514,23584198.9396369
545,0.0
2,1, 1, 1, 0,12,15.00,30.00,Sunday
9,4195896.12598403
514,23041794.9894543
545,0.0
2,1, 1, 1, 0,12,30.00,45.00,Sunday
9,4195896.12598403
514,22660029.2861724
545,0.0
2,1, 1, 1, 0,12,45.00,60.00,Sunday
9,4195896.12598403
514,22353260.6699141
545,0.0
2,1, 1, 1, 0,13, 0.00,15.00,Sunday
9,4195896.12598403
514,22236956.9452758
545,0.0
2,1, 1, 1, 0,13,15.00,30.00,Sunday
9,4195896.12598403
514,22126911.3231601
545,0.0
2,1, 1, 1, 0,13,30.00,45.00,Sunday
9,4195896.12598403
514,22111050.029203
545,0.0
2,1, 1, 1, 0,13,45.00,60.00,Sunday
9,4195896.12598403
514,22140538.0353703
545,0.0
2,1, 1, 1, 0,14, 0.00,15.00,Sunday
9,4195896.12598403
514,21819823.010945
545,0.0
2,1, 1, 1, 0,14,15.00,30.00,Sunday
9,4195896.12598403
514,21718772.7681705
545,0.0
2,1, 1, 1, 0,14,30.00,45.00,Sunday
9,4195896.12598403
514,21589978.2523787
545,0.0
2,1, 1, 1, 0,14,45.00,60.00,Sunday
9,4195896.12598403
514,21483821.5122528
545,0.0
2,1, 1, 1, 0,15, 0.00,15.00,Sunday
9,4195896.12598403
514,21232874.2332666
545,0.0
2,1, 1, 1, 0,15,15.00,30.00,Sunday
9,4195896.12598403
514,20964448.5480278
545,0.0
2,1, 1, 1, 0,15,30.00,45.00,Sunday
9,4195896.12598403
514,20743018.0994395
545,0.0
2,1, 1, 1, 0,15,45.00,60.00,Sunday
9,4195896.12598403
514,20535634.0420288
545,0.0
2,1, 1, 1, 0,16, 0.00,15.00,Sunday
9,4195896.12598403
514,20184664.466007
545,0.0
2,1, 1, 1, 0,16,15.00,30.00,Sunday
9,4195896.12598403
514,19823188.1867197
545,0.0
2,1, 1, 1, 0,16,30.00,45.00,Sunday
9,4195896.12598403
514,19475039.4370677
545,0.0
2,1, 1, 1, 0,16,45.00,60.00,Sunday
9,4195896.12598403
514,19140488.6684275
545,0.0
2,1, 1, 1, 0,17, 0.00,15.00,Sunday
9,4195896.12598403
514,19306522.1456355
545,0.0
2,1, 1, 1, 0,17,15.00,30.00,Sunday
9,4195896.12598403
514,19531355.3408773
545,0.0
2,1, 1, 1, 0,17,30.00,45.00,Sunday
9,4195896.12598403
514,19733195.5610374
545,0.0
2,1, 1, 1, 0,17,45.00,60.00,Sunday
9,4195896.12598403
514,19815006.6737285
545,0.0
2,1, 1, 1, 0,18, 0.00,15.00,Sunday
9,4195896.12598403
514,19917428.6869221
545,0.0
2,1, 1, 1, 0,18,15.00,30.00,Sunday
9,4195896.12598403
514,19998470.1204318
545,0.0
2,1, 1, 1, 0,18,30.00,45.00,Sunday
9,4195896.12598403
514,20058475.52839
545,0.0
2,1, 1, 1, 0,18,45.00,60.00,Sunday
9,4195896.12598403
514,20098400.7167721
545,0.0
2,1, 1, 1, 0,19, 0.00,15.00,Sunday
9,4195896.12598403
514,20212013.5135747
545,0.0
2,1, 1, 1, 0,19,15.00,30.00,Sunday
9,4195896.12598403
514,20311955.3691845
545,0.0
2,1, 1, 1, 0,19,30.00,45.00,Sunday
9,4195896.12598403
514,20399406.9987429
545,0.0
2,1, 1, 1, 0,19,45.00,60.00,Sunday
9,4195896.12598403
514,20475488.3590998
545,0.0
2,1, 1, 1, 0,20, 0.00,15.00,Sunday
9,4195896.12598403
514,20558284.3037903
545,0.0
2,1, 1, 1, 0,20,15.00,30.00,Sunday
9,4195896.12598403
514,20629013.0561979
545,0.0
2,1, 1, 1, 0,20,30.00,45.00,Sunday
9,4195896.12598403
514,20704168.2695835
545,0.0
2,1, 1, 1, 0,20,45.00,60.00,Sunday
9,4195896.12598403
514,20775502.7888444
545,0.0
2,1, 1, 1, 0,21, 0.00,15.00,Sunday
9,4195896.12598403
514,20986479.2032898
545,0.0
2,1, 1, 1, 0,21,15.00,30.00,Sunday
9,4195896.12598403
514,21210019.9816706
545,0.0
2,1, 1, 1, 0,21,30.00,45.00,Sunday
9,4195896.12598403
514,21436712.3875174
545,0.0
2,1, 1, 1, 0,21,45.00,60.00,Sunday
9,4195896.12598403
514,21660170.3996016
545,0.0
2,1, 1, 1, 0,22, 0.00,15.00,Sunday
9,4195896.12598403
514,21850166.4541169
545,0.0
2,1, 1, 1, 0,22,15.00,30.00,Sunday
9,4195896.12598403
514,22026388.8031533
545,0.0
2,1, 1, 1, 0,22,30.00,45.00,Sunday
9,4195896.12598403
514,22205246.0135975
545,0.0
2,1, 1, 1, 0,22,45.00,60.00,Sunday
9,4195896.12598403
514,22400566.2591471
545,0.0
2,1, 1, 1, 0,23, 0.00,15.00,Sunday
9,4195896.12598403
514,22458704.9250011
545,0.0
2,1, 1, 1, 0,23,15.00,30.00,Sunday
9,4195896.12598403
514,22516055.7804788
545,0.0
2,1, 1, 1, 0,23,30.00,45.00,Sunday
9,4195896.12598403
514,22572229.9724345
545,0.0
2,1, 1, 1, 0,23,45.00,60.00,Sunday
9,4195896.12598403
514,22627550.0658192
545,0.0
2,1, 1, 1, 0,24, 0.00,15.00,Sunday
9,4195896.12598403
514,22647512.7823498
545,0.0
2,1, 1, 1, 0,24,15.00,30.00,Sunday
9,4195896.12598403
514,22667059.4416802
545,0.0
2,1, 1, 1, 0,24,30.00,45.00,Sunday
9,4195896.12598403
514,22686609.8607617
545,0.0
2,1, 1, 1, 0,24,45.00,60.00,Sunday
9,4195896.12598403
514,22706304.5957007
545,0.0
2,2, 1, 2, 0, 1, 0.00,15.00,Monday
9,5422117.43275536
514,21398804.4944164
545,0.0
2,2, 1, 2, 0, 1,15.00,30.00,Monday
9,5422117.43275536
514,21315808.1292749
545,0.0
2,2, 1, 2, 0, 1,30.00,45.00,Monday
9,5422117.43275536
514,21227760.6063446
545,0.0
2,2, 1, 2, 0, 1,45.00,60.00,Monday
9,5422117.43275536
514,21136292.8325462
545,0.0
2,2, 1, 2, 0, 2, 0.00,15.00,Monday
9,5422117.43275536
514,21231296.5314364
545,0.0
2,2, 1, 2, 0, 2,15.00,30.00,Monday
9,5422117.43275536
514,21327088.7229964
545,0.0
2,2, 1, 2, 0, 2,30.00,45.00,Monday
9,5422117.43275536
514,21431531.9590372
545,0.0
2,2, 1, 2, 0, 2,45.00,60.00,Monday
9,5422117.43275536
514,21541774.8889842
545,0.0
2,2, 1, 2, 0, 3, 0.00,15.00,Monday
9,5422117.43275536
514,21506929.2265475
545,0.0
2,2, 1, 2, 0, 3,15.00,30.00,Monday
9,5422117.43275536
514,21470520.5644163
545,0.0
2,2, 1, 2, 0, 3,30.00,45.00,Monday
9,5422117.43275536
514,21426157.9308077
545,0.0
2,2, 1, 2, 0, 3,45.00,60.00,Monday
9,5422117.43275536
514,21376846.8324409
545,0.0
2,2, 1, 2, 0, 4, 0.00,15.00,Monday
9,5422117.43275536
514,21391782.6927258
545,0.0
2,2, 1, 2, 0, 4,15.00,30.00,Monday
9,5422117.43275536
514,21406605.8092803
545,0.0
2,2, 1, 2, 0, 4,30.00,45.00,Monday
9,5422117.43275536
514,21423370.0465134
545,0.0
2,2, 1, 2, 0, 4,45.00,60.00,Monday
9,5422117.43275536
514,21441414.3515797
545,0.0
2,2, 1, 2, 0, 5, 0.00,15.00,Monday
9,5422117.43275536
514,21386228.8772963
545,0.0
2,2, 1, 2, 0, 5,15.00,30.00,Monday
9,5422117.43275536
514,21330662.7443076
545,0.0
2,2, 1, 2, 0, 5,30.00,45.00,Monday
9,5422117.43275536
514,21275417.155954
545,0.0
2,2, 1, 2, 0, 5,45.00,60.00,Monday
9,5422117.43275536
514,21220140.8874056
545,0.0
2,2, 1, 2, 0, 6, 0.00,15.00,Monday
9,5939349.6384254
514,20512127.5427091
545,0.0
2,2, 1, 2, 0, 6,15.00,30.00,Monday
9,5939349.6384254
514,20318793.2077609
545,0.0
2,2, 1, 2, 0, 6,30.00,45.00,Monday
9,5939349.6384254
514,20119458.1303766
545,0.0
2,2, 1, 2, 0, 6,45.00,60.00,Monday
9,5939349.6384254
514,19915871.0509822
545,0.0
2,2, 1, 2, 0, 7, 0.00,15.00,Monday
9,5939349.6384254
514,147631502.828751
545,0.0
2,2, 1, 2, 0, 7,15.00,30.00,Monday
9,5939349.6384254
514,75477958.4268967
545,0.0
2,2, 1, 2, 0, 7,30.00,45.00,Monday
9,5939349.6384254
514,103834629.993935
545,0.0
2,2, 1, 2, 0, 7,45.00,60.00,Monday
9,5939349.6384254
514,67026136.0795253
545,0.0
2,2, 1, 2, 0, 8, 0.00,15.00,Monday
9,8008278.46110554
514,66116058.4927047
545,0.0
2,2, 1, 2, 0, 8,15.00,30.00,Monday
9,8008278.46110554
514,63089821.6498111
545,0.0
2,2, 1, 2, 0, 8,30.00,45.00,Monday
9,8008278.46110554
514,60629999.7132396
545,0.0
2,2, 1, 2, 0, 8,45.00,60.00,Monday
9,8008278.46110554
514,58586753.3417059
545,0.0
2,2, 1, 2, 0, 9, 0.00,15.00,Monday
9,20346171.4630026
514,51369207.2376024
545,0.0
2,2, 1, 2, 0, 9,15.00,30.00,Monday
9,20346171.4630026
514,49293171.1296526
545,0.0
2,2, 1, 2, 0, 9,30.00,45.00,Monday
9,20346171.4630026
514,47428530.9758556
545,0.0
2,2, 1, 2, 0, 9,45.00,60.00,Monday
9,20346171.4630026
514,45681834.4095415
545,0.0
2,2, 1, 2, 0,10, 0.00,15.00,Monday
9,20346171.4630026
514,44176381.1001388
545,0.0
2,2, 1, 2, 0,10,15.00,30.00,Monday
9,20346171.4630026
514,42763858.9385823
545,0.0
2,2, 1, 2, 0,10,30.00,45.00,Monday
9,20346171.4630026
514,41451382.6014665
545,0.0
2,2, 1, 2, 0,10,45.00,60.00,Monday
9,20346171.4630026
514,40214258.0922287
545,0.0
2,2, 1, 2, 0,11, 0.00,15.00,Monday
9,20346171.4630026
514,38894518.4954848
545,0.0
2,2, 1, 2, 0,11,15.00,30.00,Monday
9,20346171.4630026
514,37616403.2053713
545,0.0
2,2, 1, 2, 0,11,30.00,45.00,Monday
9,20346171.4630026
514,36468730.529914
545,0.0
2,2, 1, 2, 0,11,45.00,60.00,Monday
9,20346171.4630026
514,35366577.1294398
545,0.0
2,2, 1, 2, 0,12, 0.00,15.00,Monday
9,20346171.4630026
514,34304340.6344995
545,0.0
2,2, 1, 2, 0,12,15.00,30.00,Monday
9,20346171.4630026
514,33273009.485618
545,0.0
2,2, 1, 2, 0,12,30.00,45.00,Monday
9,20346171.4630026
514,32301269.1628307
545,0.0
2,2, 1, 2, 0,12,45.00,60.00,Monday
9,20346171.4630026
514,31379662.7431003
545,0.0
2,2, 1, 2, 0,13, 0.00,15.00,Monday
9,19119950.1562313
514,30874920.8867917
545,0.0
2,2, 1, 2, 0,13,15.00,30.00,Monday
9,19119950.1562313
514,29805956.2968016
545,0.0
2,2, 1, 2, 0,13,30.00,45.00,Monday
9,19119950.1562313
514,28793451.8839484
545,0.0
2,2, 1, 2, 0,13,45.00,60.00,Monday
9,19119950.1562313
514,27824282.4472075
545,0.0
2,2, 1, 2, 0,14, 0.00,15.00,Monday
9,20346171.4630026
514,27056412.5871344
545,0.0
2,2, 1, 2, 0,14,15.00,30.00,Monday
9,20346171.4630026
514,26604964.215532
545,0.0
2,2, 1, 2, 0,14,30.00,45.00,Monday
9,20346171.4630026
514,26217847.7640919
545,0.0
2,2, 1, 2, 0,14,45.00,60.00,Monday
9,20346171.4630026
514,25860197.0765077
545,0.0
2,2, 1, 2, 0,15, 0.00,15.00,Monday
9,20346171.4630026
514,25512299.5454495
545,0.0
2,2, 1, 2, 0,15,15.00,30.00,Monday
9,20346171.4630026
514,25177774.6963883
545,0.0
2,2, 1, 2, 0,15,30.00,45.00,Monday
9,20346171.4630026
514,24883639.4089097
545,0.0
2,2, 1, 2, 0,15,45.00,60.00,Monday
9,20346171.4630026
514,24617988.2620444
545,0.0
2,2, 1, 2, 0,16, 0.00,15.00,Monday
9,20346171.4630026
514,24403876.8081608
545,0.0
2,2, 1, 2, 0,16,15.00,30.00,Monday
9,20346171.4630026
514,24185824.7657255
545,0.0
2,2, 1, 2, 0,16,30.00,45.00,Monday
9,20346171.4630026
514,23978767.4963398
545,0.0
2,2, 1, 2, 0,16,45.00,60.00,Monday
9,20346171.4630026
514,23782630.2823701
545,0.0
2,2, 1, 2, 0,17, 0.00,15.00,Monday
9,20346171.4630026
514,23839305.8245314
545,0.0
2,2, 1, 2, 0,17,15.00,30.00,Monday
9,20346171.4630026
514,23918100.285347
545,0.0
2,2, 1, 2, 0,17,30.00,45.00,Monday
9,20346171.4630026
514,24018822.9055903
545,0.0
2,2, 1, 2, 0,17,45.00,60.00,Monday
9,20346171.4630026
514,24060607.1579007
545,0.0
2,2, 1, 2, 0,18, 0.00,15.00,Monday
9,17051021.3335512
514,25924624.9437467
545,0.0
2,2, 1, 2, 0,18,15.00,30.00,Monday
9,17051021.3335512
514,25979105.3358575
545,0.0
2,2, 1, 2, 0,18,30.00,45.00,Monday
9,17051021.3335512
514,26019089.8351989
545,0.0
2,2, 1, 2, 0,18,45.00,60.00,Monday
9,17051021.3335512
514,26054462.6640099
545,0.0
2,2, 1, 2, 0,19, 0.00,15.00,Monday
9,12529649.8973284
514,29616240.3640652
545,0.0
2,2, 1, 2, 0,19,15.00,30.00,Monday
9,12529649.8973284
514,30769588.2571994
545,0.0
2,2, 1, 2, 0,19,30.00,45.00,Monday
9,12529649.8973284
514,30694995.2718853
545,0.0
2,2, 1, 2, 0,19,45.00,60.00,Monday
9,12529649.8973284
514,31131032.1636586
545,0.0
2,2, 1, 2, 0,20, 0.00,15.00,Monday
9,12529649.8973284
514,31114842.4604236
545,0.0
2,2, 1, 2, 0,20,15.00,30.00,Monday
9,12529649.8973284
514,31091602.9269015
545,0.0
2,2, 1, 2, 0,20,30.00,45.00,Monday
9,12529649.8973284
514,31063418.3662931
545,0.0
2,2, 1, 2, 0,20,45.00,60.00,Monday
9,12529649.8973284
514,31032704.8947814
545,0.0
2,2, 1, 2, 0,21, 0.00,15.00,Monday
9,9234499.76787687
514,27262544.6532075
545,0.0
2,2, 1, 2, 0,21,15.00,30.00,Monday
9,9234499.76787687
514,27480556.3679813
545,0.0
2,2, 1, 2, 0,21,30.00,45.00,Monday
9,9234499.76787687
514,27621708.8680214
545,0.0
2,2, 1, 2, 0,21,45.00,60.00,Monday
9,9234499.76787687
514,27720168.6483493
545,0.0
2,2, 1, 2, 0,22, 0.00,15.00,Monday
9,9234499.76787687
514,27745028.9467138
545,0.0
2,2, 1, 2, 0,22,15.00,30.00,Monday
9,9234499.76787687
514,27747922.8451607
545,0.0
2,2, 1, 2, 0,22,30.00,45.00,Monday
9,9234499.76787687
514,27749785.4917994
545,0.0
2,2, 1, 2, 0,22,45.00,60.00,Monday
9,9234499.76787687
514,27747536.1801698
545,0.0
2,2, 1, 2, 0,23, 0.00,15.00,Monday
9,5939349.6384254
514,0.0
545,0.0
2,2, 1, 2, 0,23,15.00,30.00,Monday
9,5939349.6384254
514,628386.767188015
545,0.0
2,2, 1, 2, 0,23,30.00,45.00,Monday
9,5939349.6384254
514,1819718.73361023
545,0.0
2,2, 1, 2, 0,23,45.00,60.00,Monday
9,5939349.6384254
514,2494705.60317595
545,0.0
2,2, 1, 2, 0,24, 0.00,15.00,Monday
9,5422117.43275536
514,3940950.08417268
545,0.0
2,2, 1, 2, 0,24,15.00,30.00,Monday
9,5422117.43275536
514,4543570.07641825
545,0.0
2,2, 1, 2, 0,24,30.00,45.00,Monday
9,5422117.43275536
514,4927562.01219059
545,0.0
2,2, 1, 2, 0,24,45.00,60.00,Monday
9,5422117.43275536
514,5256736.91577293
545,0.0
2,3, 1, 3, 0, 1, 0.00,15.00,Tuesday
9,5422117.43275536
514,5618527.56972855
545,0.0
2,3, 1, 3, 0, 1,15.00,30.00,Tuesday
9,5422117.43275536
514,5904265.74497573
545,0.0
2,3, 1, 3, 0, 1,30.00,45.00,Tuesday
9,5422117.43275536
514,6168118.93851065
545,0.0
2,3, 1, 3, 0, 1,45.00,60.00,Tuesday
9,5422117.43275536
514,6414914.17543826
545,0.0
2,3, 1, 3, 0, 2, 0.00,15.00,Tuesday
9,5422117.43275536
514,6563357.16584106
545,0.0
2,3, 1, 3, 0, 2,15.00,30.00,Tuesday
9,5422117.43275536
514,6698375.85269603
545,0.0
2,3, 1, 3, 0, 2,30.00,45.00,Tuesday
9,5422117.43275536
514,6821322.34465785
545,0.0
2,3, 1, 3, 0, 2,45.00,60.00,Tuesday
9,5422117.43275536
514,6936533.91436677
545,0.0
2,3, 1, 3, 0, 3, 0.00,15.00,Tuesday
9,5422117.43275536
514,7031933.90613784
545,0.0
2,3, 1, 3, 0, 3,15.00,30.00,Tuesday
9,5422117.43275536
514,7120489.84174506
545,0.0
2,3, 1, 3, 0, 3,30.00,45.00,Tuesday
9,5422117.43275536
514,7203501.75911237
545,0.0
2,3, 1, 3, 0, 3,45.00,60.00,Tuesday
9,5422117.43275536
514,7281470.23435407
545,0.0
2,3, 1, 3, 0, 4, 0.00,15.00,Tuesday
9,5422117.43275536
514,7511908.20010868
545,0.0
2,3, 1, 3, 0, 4,15.00,30.00,Tuesday
9,5422117.43275536
514,7810894.23969924
545,0.0
2,3, 1, 3, 0, 4,30.00,45.00,Tuesday
9,5422117.43275536
514,7973754.83162289
545,0.0
2,3, 1, 3, 0, 4,45.00,60.00,Tuesday
9,5422117.43275536
514,8073470.91736739
545,0.0
2,3, 1, 3, 0, 5, 0.00,15.00,Tuesday
9,5422117.43275536
514,8362964.15558
545,0.0
2,3, 1, 3, 0, 5,15.00,30.00,Tuesday
9,5422117.43275536
514,8612879.54176552
545,0.0
2,3, 1, 3, 0, 5,30.00,45.00,Tuesday
9,5422117.43275536
514,8849860.26460804
545,0.0
2,3, 1, 3, 0, 5,45.00,60.00,Tuesday
9,5422117.43275536
514,9089053.31185566
545,0.0
2,3, 1, 3, 0, 6, 0.00,15.00,Tuesday
9,5939349.6384254
514,8844460.38954199
545,0.0
2,3, 1, 3, 0, 6,15.00,30.00,Tuesday
9,5939349.6384254
514,8985906.25934978
545,0.0
2,3, 1, 3, 0, 6,30.00,45.00,Tuesday
9,5939349.6384254
514,9115093.062883
545,0.0
2,3, 1, 3, 0, 6,45.00,60.00,Tuesday
9,5939349.6384254
514,9232963.88891759
545,0.0
2,3, 1, 3, 0, 7, 0.00,15.00,Tuesday
9,5939349.6384254
514,117490353.112495
545,0.0
2,3, 1, 3, 0, 7,15.00,30.00,Tuesday
9,5939349.6384254
514,64686365.4877382
545,0.0
2,3, 1, 3, 0, 7,30.00,45.00,Tuesday
9,5939349.6384254
514,89056122.0258334
545,0.0
2,3, 1, 3, 0, 7,45.00,60.00,Tuesday
9,5939349.6384254
514,48854015.3497745
545,0.0
2,3, 1, 3, 0, 8, 0.00,15.00,Tuesday
9,8008278.46110554
514,49966340.0166376
545,0.0
2,3, 1, 3, 0, 8,15.00,30.00,Tuesday
9,8008278.46110554
514,47897434.5414438
545,0.0
2,3, 1, 3, 0, 8,30.00,45.00,Tuesday
9,8008278.46110554
514,46261973.6449168
545,0.0
2,3, 1, 3, 0, 8,45.00,60.00,Tuesday
9,8008278.46110554
514,44930351.6577306
545,0.0
2,3, 1, 3, 0, 9, 0.00,15.00,Tuesday
9,20346171.4630026
514,37429617.0420169
545,0.0
2,3, 1, 3, 0, 9,15.00,30.00,Tuesday
9,20346171.4630026
514,36228879.8185168
545,0.0
2,3, 1, 3, 0, 9,30.00,45.00,Tuesday
9,20346171.4630026
514,35195772.1248775
545,0.0
2,3, 1, 3, 0, 9,45.00,60.00,Tuesday
9,20346171.4630026
514,34263622.5107928
545,0.0
2,3, 1, 3, 0,10, 0.00,15.00,Tuesday
9,20346171.4630026
514,33332335.2389427
545,0.0
2,3, 1, 3, 0,10,15.00,30.00,Tuesday
9,20346171.4630026
514,32462605.4163089
545,0.0
2,3, 1, 3, 0,10,30.00,45.00,Tuesday
9,20346171.4630026
514,31650171.9181658
545,0.0
2,3, 1, 3, 0,10,45.00,60.00,Tuesday
9,20346171.4630026
514,30882260.779775
545,0.0
2,3, 1, 3, 0,11, 0.00,15.00,Tuesday
9,20346171.4630026
514,29996179.2465715
545,0.0
2,3, 1, 3, 0,11,15.00,30.00,Tuesday
9,20346171.4630026
514,29286159.9651675
545,0.0
2,3, 1, 3, 0,11,30.00,45.00,Tuesday
9,20346171.4630026
514,28677361.3268203
545,0.0
2,3, 1, 3, 0,11,45.00,60.00,Tuesday
9,20346171.4630026
514,28101971.6282178
545,0.0
2,3, 1, 3, 0,12, 0.00,15.00,Tuesday
9,20346171.4630026
514,27320811.6381308
545,0.0
2,3, 1, 3, 0,12,15.00,30.00,Tuesday
9,20346171.4630026
514,26557716.6109752
545,0.0
2,3, 1, 3, 0,12,30.00,45.00,Tuesday
9,20346171.4630026
514,25837079.3298167
545,0.0
2,3, 1, 3, 0,12,45.00,60.00,Tuesday
9,20346171.4630026
514,25142343.6672452
545,0.0
2,3, 1, 3, 0,13, 0.00,15.00,Tuesday
9,19119950.1562313
514,24139801.8357158
545,0.0
2,3, 1, 3, 0,13,15.00,30.00,Tuesday
9,19119950.1562313
514,23359169.6651046
545,0.0
2,3, 1, 3, 0,13,30.00,45.00,Tuesday
9,19119950.1562313
514,22606104.6780948
545,0.0
2,3, 1, 3, 0,13,45.00,60.00,Tuesday
9,19119950.1562313
514,21874308.9461391
545,0.0
2,3, 1, 3, 0,14, 0.00,15.00,Tuesday
9,20346171.4630026
514,21735519.8757391
545,0.0
2,3, 1, 3, 0,14,15.00,30.00,Tuesday
9,20346171.4630026
514,21463073.2556582
545,0.0
2,3, 1, 3, 0,14,30.00,45.00,Tuesday
9,20346171.4630026
514,21249705.3751508
545,0.0
2,3, 1, 3, 0,14,45.00,60.00,Tuesday
9,20346171.4630026
514,21068620.6755916
545,0.0
2,3, 1, 3, 0,15, 0.00,15.00,Tuesday
9,20346171.4630026
514,20957775.0025025
545,0.0
2,3, 1, 3, 0,15,15.00,30.00,Tuesday
9,20346171.4630026
514,20859214.2804292
545,0.0
2,3, 1, 3, 0,15,30.00,45.00,Tuesday
9,20346171.4630026
514,20795971.3466647
545,0.0
2,3, 1, 3, 0,15,45.00,60.00,Tuesday
9,20346171.4630026
514,20758545.0213158
545,0.0
2,3, 1, 3, 0,16, 0.00,15.00,Tuesday
9,20346171.4630026
514,20885188.1914561
545,0.0
2,3, 1, 3, 0,16,15.00,30.00,Tuesday
9,20346171.4630026
514,21025004.722263
545,0.0
2,3, 1, 3, 0,16,30.00,45.00,Tuesday
9,20346171.4630026
514,21180795.8479806
545,0.0
2,3, 1, 3, 0,16,45.00,60.00,Tuesday
9,20346171.4630026
514,21350133.103586
545,0.0
2,3, 1, 3, 0,17, 0.00,15.00,Tuesday
9,20346171.4630026
514,21602423.0067945
545,0.0
2,3, 1, 3, 0,17,15.00,30.00,Tuesday
9,20346171.4630026
514,21864172.4788108
545,0.0
2,3, 1, 3, 0,17,30.00,45.00,Tuesday
9,20346171.4630026
514,22084543.218925
545,0.0
2,3, 1, 3, 0,17,45.00,60.00,Tuesday
9,20346171.4630026
514,22330497.6591644
545,0.0
2,3, 1, 3, 0,18, 0.00,15.00,Tuesday
9,17051021.3335512
514,24547406.2533504
545,0.0
2,3, 1, 3, 0,18,15.00,30.00,Tuesday
9,17051021.3335512
514,24970948.1767851
545,0.0
2,3, 1, 3, 0,18,30.00,45.00,Tuesday
9,17051021.3335512
514,25385362.4767512
545,0.0
2,3, 1, 3, 0,18,45.00,60.00,Tuesday
9,17051021.3335512
514,25802997.6918385
545,0.0
2,3, 1, 3, 0,19, 0.00,15.00,Tuesday
9,12529649.8973284
514,28111241.6756756
545,0.0
2,3, 1, 3, 0,19,15.00,30.00,Tuesday
9,12529649.8973284
514,30126210.282789
545,0.0
2,3, 1, 3, 0,19,30.00,45.00,Tuesday
9,12529649.8973284
514,30762431.1755322
545,0.0
2,3, 1, 3, 0,19,45.00,60.00,Tuesday
9,12529649.8973284
514,31129626.4990954
545,0.0
2,3, 1, 3, 0,20, 0.00,15.00,Tuesday
9,12529649.8973284
514,31802241.0374536
545,0.0
2,3, 1, 3, 0,20,15.00,30.00,Tuesday
9,12529649.8973284
514,32336922.3253326
545,0.0
2,3, 1, 3, 0,20,30.00,45.00,Tuesday
9,12529649.8973284
514,32864505.2539105
545,0.0
2,3, 1, 3, 0,20,45.00,60.00,Tuesday
9,12529649.8973284
514,33385847.0458324
545,0.0
2,3, 1, 3, 0,21, 0.00,15.00,Tuesday
9,9234499.76787687
514,28536330.5677518
545,0.0
2,3, 1, 3, 0,21,15.00,30.00,Tuesday
9,9234499.76787687
514,29155552.2192622
545,0.0
2,3, 1, 3, 0,21,30.00,45.00,Tuesday
9,9234499.76787687
514,29714737.8372757
545,0.0
2,3, 1, 3, 0,21,45.00,60.00,Tuesday
9,9234499.76787687
514,30227585.4083005
545,0.0
2,3, 1, 3, 0,22, 0.00,15.00,Tuesday
9,9234499.76787687
514,30696150.0559728
545,0.0
2,3, 1, 3, 0,22,15.00,30.00,Tuesday
9,9234499.76787687
514,31168549.3984117
545,0.0
2,3, 1, 3, 0,22,30.00,45.00,Tuesday
9,9234499.76787687
514,31623044.6217189
545,0.0
2,3, 1, 3, 0,22,45.00,60.00,Tuesday
9,9234499.76787687
514,32073615.876451
545,0.0
2,3, 1, 3, 0,23, 0.00,15.00,Tuesday
9,5939349.6384254
514,0.0
545,0.0
2,3, 1, 3, 0,23,15.00,30.00,Tuesday
9,5939349.6384254
514,1365036.08605334
545,0.0
2,3, 1, 3, 0,23,30.00,45.00,Tuesday
9,5939349.6384254
514,3929608.81940913
545,0.0
2,3, 1, 3, 0,23,45.00,60.00,Tuesday
9,5939349.6384254
514,5686765.88347359
545,0.0
2,3, 1, 3, 0,24, 0.00,15.00,Tuesday
9,5422117.43275536
514,6412197.08319945
545,0.0
2,3, 1, 3, 0,24,15.00,30.00,Tuesday
9,5422117.43275536
514,6677304.52991658
545,0.0
2,3, 1, 3, 0,24,30.00,45.00,Tuesday
9,5422117.43275536
514,6950573.2711302
545,0.0
2,3, 1, 3, 0,24,45.00,60.00,Tuesday
9,5422117.43275536
514,7131792.21375649
545,0.0
2,4, 1, 4, 0, 1, 0.00,15.00,Wednesday
9,5422117.43275536
514,7241221.71690169
545,0.0
2,4, 1, 4, 0, 1,15.00,30.00,Wednesday
9,5422117.43275536
514,7274415.16150634
545,0.0
2,4, 1, 4, 0, 1,30.00,45.00,Wednesday
9,5422117.43275536
514,7283771.4044579
545,0.0
2,4, 1, 4, 0, 1,45.00,60.00,Wednesday
9,5422117.43275536
514,7275946.58629061
545,0.0
2,4, 1, 4, 0, 2, 0.00,15.00,Wednesday
9,5422117.43275536
514,7425228.02693521
545,0.0
2,4, 1, 4, 0, 2,15.00,30.00,Wednesday
9,5422117.43275536
514,7561841.55060666
545,0.0
2,4, 1, 4, 0, 2,30.00,45.00,Wednesday
9,5422117.43275536
514,7686246.72598104
545,0.0
2,4, 1, 4, 0, 2,45.00,60.00,Wednesday
9,5422117.43275536
514,7800616.92754901
545,0.0
2,4, 1, 4, 0, 3, 0.00,15.00,Wednesday
9,5422117.43275536
514,7950841.99068091
545,0.0
2,4, 1, 4, 0, 3,15.00,30.00,Wednesday
9,5422117.43275536
514,8098049.75807746
545,0.0
2,4, 1, 4, 0, 3,30.00,45.00,Wednesday
9,5422117.43275536
514,8617846.7795966
545,0.0
2,4, 1, 4, 0, 3,45.00,60.00,Wednesday
9,5422117.43275536
514,9162831.72896955
545,0.0
2,4, 1, 4, 0, 4, 0.00,15.00,Wednesday
9,5422117.43275536
514,9518684.89157057
545,0.0
2,4, 1, 4, 0, 4,15.00,30.00,Wednesday
9,5422117.43275536
514,10095024.7057134
545,0.0
2,4, 1, 4, 0, 4,30.00,45.00,Wednesday
9,5422117.43275536
514,10584951.8630738
545,0.0
2,4, 1, 4, 0, 4,45.00,60.00,Wednesday
9,5422117.43275536
514,11061136.3455996
545,0.0
2,4, 1, 4, 0, 5, 0.00,15.00,Wednesday
9,5422117.43275536
514,11375650.1226684
545,0.0
2,4, 1, 4, 0, 5,15.00,30.00,Wednesday
9,5422117.43275536
514,11676647.2707254
545,0.0
2,4, 1, 4, 0, 5,30.00,45.00,Wednesday
9,5422117.43275536
514,11977849.0543776
545,0.0
2,4, 1, 4, 0, 5,45.00,60.00,Wednesday
9,5422117.43275536
514,12265508.2944354
545,0.0
2,4, 1, 4, 0, 6, 0.00,15.00,Wednesday
9,5939349.6384254
514,12241246.4548187
545,0.0
2,4, 1, 4, 0, 6,15.00,30.00,Wednesday
9,5939349.6384254
514,12632661.9987756
545,0.0
2,4, 1, 4, 0, 6,30.00,45.00,Wednesday
9,5939349.6384254
514,13185220.3746148
545,0.0
2,4, 1, 4, 0, 6,45.00,60.00,Wednesday
9,5939349.6384254
514,13569216.7265238
545,0.0
2,4, 1, 4, 0, 7, 0.00,15.00,Wednesday
9,5939349.6384254
514,126448803.510131
545,0.0
2,4, 1, 4, 0, 7,15.00,30.00,Wednesday
9,5939349.6384254
514,59570365.1956887
545,0.0
2,4, 1, 4, 0, 7,30.00,45.00,Wednesday
9,5939349.6384254
514,93659882.0761015
545,0.0
2,4, 1, 4, 0, 7,45.00,60.00,Wednesday
9,5939349.6384254
514,55913614.5361086
545,0.0
2,4, 1, 4, 0, 8, 0.00,15.00,Wednesday
9,8008278.46110554
514,57073729.3728438
545,0.0
2,4, 1, 4, 0, 8,15.00,30.00,Wednesday
9,8008278.46110554
514,54915794.1079586
545,0.0
2,4, 1, 4, 0, 8,30.00,45.00,Wednesday
9,8008278.46110554
514,53189375.0227318
545,0.0
2,4, 1, 4, 0, 8,45.00,60.00,Wednesday
9,8008278.46110554
514,51783678.5987449
545,0.0
2,4, 1, 4, 0, 9, 0.00,15.00,Wednesday
9,20346171.4630026
514,46135502.4191452
545,0.0
2,4, 1, 4, 0, 9,15.00,30.00,Wednesday
9,20346171.4630026
514,44690578.0460028
545,0.0
2,4, 1, 4, 0, 9,30.00,45.00,Wednesday
9,20346171.4630026
514,43424435.5079315
545,0.0
2,4, 1, 4, 0, 9,45.00,60.00,Wednesday
9,20346171.4630026
514,42269403.8985669
545,0.0
2,4, 1, 4, 0,10, 0.00,15.00,Wednesday
9,20346171.4630026
514,41039878.7617443
545,0.0
2,4, 1, 4, 0,10,15.00,30.00,Wednesday
9,20346171.4630026
514,39883192.0632451
545,0.0
2,4, 1, 4, 0,10,30.00,45.00,Wednesday
9,20346171.4630026
514,38786014.8014251
545,0.0
2,4, 1, 4, 0,10,45.00,60.00,Wednesday
9,20346171.4630026
514,37730802.7898483
545,0.0
2,4, 1, 4, 0,11, 0.00,15.00,Wednesday
9,20346171.4630026
514,36943749.734034
545,0.0
2,4, 1, 4, 0,11,15.00,30.00,Wednesday
9,20346171.4630026
514,36186874.4472551
545,0.0
2,4, 1, 4, 0,11,30.00,45.00,Wednesday
9,20346171.4630026
514,35498958.8262248
545,0.0
2,4, 1, 4, 0,11,45.00,60.00,Wednesday
9,20346171.4630026
514,34853870.9672894
545,0.0
2,4, 1, 4, 0,12, 0.00,15.00,Wednesday
9,20346171.4630026
514,34052343.2470483
545,0.0
2,4, 1, 4, 0,12,15.00,30.00,Wednesday
9,20346171.4630026
514,33277463.203872
545,0.0
2,4, 1, 4, 0,12,30.00,45.00,Wednesday