Program Version,EnergyPlus, Version 8.5.0-c87e61b44b, YMD=2017.12.19 17:58
1,5,Environment Title[],Latitude[deg],Longitude[deg],Time Zone[],Elevation[m]
2,6,Day of Simulation[],Month[],Day of Month[],DST Indicator[1=yes 0=no],Hour[],StartMinute[],EndMinute[],DayType
3,3,Cumulative Day of Simulation[],Month[],Day of Month[],DST Indicator[1=yes 0=no],DayType  ! When Daily Meters Requested
4,2,Cumulative Days of Simulation[],Month[]  ! When Monthly Meters Requested
5,1,Cumulative Days of Simulation[] ! When Run Period Meters Requested
9,1,Electricity:Facility [J] !TimeStep
545,1,DistrictCooling:Facility [J] !TimeStep
514,1,DistrictHeating:Facility [J] !TimeStep
End of Data Dictionary
1,RUN PERIOD 1,  44.92,   9.73,   1.00, 134.00
2,1, 1, 1, 0, 1, 0.00,15.00,Sunday
9,4195896.12598403
514,21363035.8886431
545,0.0
2,1, 1, 1, 0, 1,15.00,30.00,Sunday
9,4195896.12598403
514,22575080.4372696
545,0.0
2,1, 1, 1, 0, 1,30.00,45.00,Sunday
9,4195896.12598403
514,23809815.9206442
545,0.0
2,1, 1, 1, 0, 1,45.00,60.00,Sunday
9,4195896.12598403
514,25062718.9027366
545,0.0
2,1, 1, 1, 0, 2, 0.00,15.00,Sunday
9,4195896.12598403
514,25133641.0982524
545,0.0
2,1, 1, 1, 0, 2,15.00,30.00,Sunday
9,4195896.12598403
514,25192647.4195835
545,0.0
2,1, 1, 1, 0, 2,30.00,45.00,Sunday
9,4195896.12598403
514,25239075.6409287
545,0.0
2,1, 1, 1, 0, 2,45.00,60.00,Sunday
9,4195896.12598403
514,25281266.1552157
545,0.0
2,1, 1, 1, 0, 3, 0.00,15.00,Sunday
9,4195896.12598403
514,25374528.0327101
545,0.0
2,1, 1, 1, 0, 3,15.00,30.00,Sunday
9,4195896.12598403
514,25463006.6774174
545,0.0
2,1, 1, 1, 0, 3,30.00,45.00,Sunday
9,4195896.12598403
514,25551674.6336616
545,0.0
2,1, 1, 1, 0, 3,45.00,60.00,Sunday
9,4195896.12598403
514,25640694.4137659
545,0.0
2,1, 1, 1, 0, 4, 0.00,15.00,Sunday
9,4195896.12598403
514,25721624.0685465
545,0.0
2,1, 1, 1, 0, 4,15.00,30.00,Sunday
9,4195896.12598403
514,25802931.7651865
545,0.0
2,1, 1, 1, 0, 4,30.00,45.00,Sunday
9,4195896.12598403
514,25883960.9789023
545,0.0
2,1, 1, 1, 0, 4,45.00,60.00,Sunday
9,4195896.12598403
514,25964884.8160781
545,0.0
2,1, 1, 1, 0, 5, 0.00,15.00,Sunday
9,4195896.12598403
514,25989482.3232175
545,0.0
2,1, 1, 1, 0, 5,15.00,30.00,Sunday
9,4195896.12598403
514,26014349.0245343
545,0.0
2,1, 1, 1, 0, 5,30.00,45.00,Sunday
9,4195896.12598403
514,26035637.6230786
545,0.0
2,1, 1, 1, 0, 5,45.00,60.00,Sunday
9,4195896.12598403
514,26054287.6837641
545,0.0
2,1, 1, 1, 0, 6, 0.00,15.00,Sunday
9,4195896.12598403
514,26115119.4358261
545,0.0
2,1, 1, 1, 0, 6,15.00,30.00,Sunday
9,4195896.12598403
514,26173910.1164392
545,0.0
2,1, 1, 1, 0, 6,30.00,45.00,Sunday
9,4195896.12598403
514,26234185.8362819
545,0.0
2,1, 1, 1, 0, 6,45.00,60.00,Sunday
9,4195896.12598403
514,26295258.8801941
545,0.0
2,1, 1, 1, 0, 7, 0.00,15.00,Sunday
9,4195896.12598403
514,26329124.9980526
545,0.0
2,1, 1, 1, 0, 7,15.00,30.00,Sunday
9,4195896.12598403
514,26363329.443106
545,0.0
2,1, 1, 1, 0, 7,30.00,45.00,Sunday
9,4195896.12598403
514,26397430.5389731
545,0.0
2,1, 1, 1, 0, 7,45.00,60.00,Sunday
9,4195896.12598403
514,26431008.1299391
545,0.0
2,1, 1, 1, 0, 8, 0.00,15.00,Sunday
9,4195896.12598403
514,26385057.2814335
545,0.0
2,1, 1, 1, 0, 8,15.00,30.00,Sunday
9,4195896.12598403
514,26336956.1947605
545,0.0
2,1, 1, 1, 0, 8,30.00,45.00,Sunday
9,4195896.12598403
514,26286388.9911574
545,0.0
2,1, 1, 1, 0, 8,45.00,60.00,Sunday
9,4195896.12598403
514,26234135.2052551
545,0.0
2,1, 1, 1, 0, 9, 0.00,15.00,Sunday
9,4195896.12598403
514,25783660.1051551
545,0.0
2,1, 1, 1, 0, 9,15.00,30.00,Sunday
9,4195896.12598403
514,25394427.5016449
545,0.0
2,1, 1, 1, 0, 9,30.00,45.00,Sunday
9,4195896.12598403
514,24882385.5374733
545,0.0
2,1, 1, 1, 0, 9,45.00,60.00,Sunday
9,4195896.12598403
514,24295637.4924506
545,0.0
2,1, 1, 1, 0,10, 0.00,15.00,Sunday
9,4195896.12598403
514,23789977.6932426
545,0.0
2,1, 1, 1, 0,10,15.00,30.00,Sunday
9,4195896.12598403
514,23264610.1289386
545,0.0
2,1, 1, 1, 0,10,30.00,45.00,Sunday
9,4195896.12598403
514,22771292.5762291
545,0.0
2,1, 1, 1, 0,10,45.00,60.00,Sunday
9,4195896.12598403
514,22289639.369533
545,0.0
2,1, 1, 1, 0,11, 0.00,15.00,Sunday
9,4195896.12598403
514,21877299.0932762
545,0.0
2,1, 1, 1, 0,11,15.00,30.00,Sunday
9,4195896.12598403
514,21461884.0748352
545,0.0
2,1, 1, 1, 0,11,30.00,45.00,Sunday
9,4195896.12598403
514,21093592.1914862
545,0.0
2,1, 1, 1, 0,11,45.00,60.00,Sunday
9,4195896.12598403
514,20747437.4029877
545,0.0
2,1, 1, 1, 0,12, 0.00,15.00,Sunday
9,4195896.12598403
514,20398867.5015477
545,0.0
2,1, 1, 1, 0,12,15.00,30.00,Sunday
9,4195896.12598403
514,19864429.2498765
545,0.0
2,1, 1, 1, 0,12,30.00,45.00,Sunday
9,4195896.12598403
514,19467394.3261643
545,0.0
2,1, 1, 1, 0,12,45.00,60.00,Sunday
9,4195896.12598403
514,19159308.4315212
545,0.0
2,1, 1, 1, 0,13, 0.00,15.00,Sunday
9,4195896.12598403
514,18995852.6756032
545,0.0
2,1, 1, 1, 0,13,15.00,30.00,Sunday
9,4195896.12598403
514,18839883.9874788
545,0.0
2,1, 1, 1, 0,13,30.00,45.00,Sunday
9,4195896.12598403
514,18772141.7712563
545,0.0
2,1, 1, 1, 0,13,45.00,60.00,Sunday
9,4195896.12598403
514,18757904.3997464
545,0.0
2,1, 1, 1, 0,14, 0.00,15.00,Sunday
9,4195896.12598403
514,18426725.2106135
545,0.0
2,1, 1, 1, 0,14,15.00,30.00,Sunday
9,4195896.12598403
514,18268588.7731457
545,0.0
2,1, 1, 1, 0,14,30.00,45.00,Sunday
9,4195896.12598403
514,18122206.1250636
545,0.0
2,1, 1, 1, 0,14,45.00,60.00,Sunday
9,4195896.12598403
514,17987392.6307917
545,0.0
2,1, 1, 1, 0,15, 0.00,15.00,Sunday
9,4195896.12598403
514,17706523.6280728
545,0.0
2,1, 1, 1, 0,15,15.00,30.00,Sunday
9,4195896.12598403
514,17440723.8775587
545,0.0
2,1, 1, 1, 0,15,30.00,45.00,Sunday
9,4195896.12598403
514,17203799.9175912
545,0.0
2,1, 1, 1, 0,15,45.00,60.00,Sunday
9,4195896.12598403
514,16977261.9228212
545,0.0
2,1, 1, 1, 0,16, 0.00,15.00,Sunday
9,4195896.12598403
514,16651821.1578784
545,0.0
2,1, 1, 1, 0,16,15.00,30.00,Sunday
9,4195896.12598403
514,16331208.0438543
545,0.0
2,1, 1, 1, 0,16,30.00,45.00,Sunday
9,4195896.12598403
514,16033646.1936954
545,0.0
2,1, 1, 1, 0,16,45.00,60.00,Sunday
9,4195896.12598403
514,15756066.6902002
545,0.0
2,1, 1, 1, 0,17, 0.00,15.00,Sunday
9,4195896.12598403
514,15866287.170734
545,0.0
2,1, 1, 1, 0,17,15.00,30.00,Sunday
9,4195896.12598403
514,16209122.0750271
545,0.0
2,1, 1, 1, 0,17,30.00,45.00,Sunday
9,4195896.12598403
514,16466576.0613077
545,0.0
2,1, 1, 1, 0,17,45.00,60.00,Sunday
9,4195896.12598403
514,16596744.4830001
545,0.0
2,1, 1, 1, 0,18, 0.00,15.00,Sunday
9,4195896.12598403
514,16767295.5991252
545,0.0
2,1, 1, 1, 0,18,15.00,30.00,Sunday
9,4195896.12598403
514,16895070.9729429
545,0.0
2,1, 1, 1, 0,18,30.00,45.00,Sunday
9,4195896.12598403
514,16998511.2272306
545,0.0
2,1, 1, 1, 0,18,45.00,60.00,Sunday
9,4195896.12598403
514,17083389.2101764
545,0.0
2,1, 1, 1, 0,19, 0.00,15.00,Sunday
9,4195896.12598403
514,17244488.8395335
545,0.0
2,1, 1, 1, 0,19,15.00,30.00,Sunday
9,4195896.12598403
514,17391081.3185466
545,0.0
2,1, 1, 1, 0,19,30.00,45.00,Sunday
9,4195896.12598403
514,17525650.5423718
545,0.0
2,1, 1, 1, 0,19,45.00,60.00,Sunday
9,4195896.12598403
514,17649223.6829623
545,0.0
2,1, 1, 1, 0,20, 0.00,15.00,Sunday
9,4195896.12598403
514,17764013.7287361
545,0.0
2,1, 1, 1, 0,20,15.00,30.00,Sunday
9,4195896.12598403
514,17872657.5158264
545,0.0
2,1, 1, 1, 0,20,30.00,45.00,Sunday
9,4195896.12598403
514,17978136.9506327
545,0.0
2,1, 1, 1, 0,20,45.00,60.00,Sunday
9,4195896.12598403
514,18080812.0836549
545,0.0
2,1, 1, 1, 0,21, 0.00,15.00,Sunday
9,4195896.12598403
514,18303420.9059717
545,0.0
2,1, 1, 1, 0,21,15.00,30.00,Sunday
9,4195896.12598403
514,18531769.7101181
545,0.0
2,1, 1, 1, 0,21,30.00,45.00,Sunday
9,4195896.12598403
514,18762927.0842165
545,0.0
2,1, 1, 1, 0,21,45.00,60.00,Sunday
9,4195896.12598403
514,18997744.5614417
545,0.0
2,1, 1, 1, 0,22, 0.00,15.00,Sunday
9,4195896.12598403
514,19201456.2090699
545,0.0
2,1, 1, 1, 0,22,15.00,30.00,Sunday
9,4195896.12598403
514,19400948.9120741
545,0.0
2,1, 1, 1, 0,22,30.00,45.00,Sunday
9,4195896.12598403
514,19600100.0498603
545,0.0
2,1, 1, 1, 0,22,45.00,60.00,Sunday
9,4195896.12598403
514,19803894.9309261
545,0.0
2,1, 1, 1, 0,23, 0.00,15.00,Sunday
9,4195896.12598403
514,19870856.1299138
545,0.0
2,1, 1, 1, 0,23,15.00,30.00,Sunday
9,4195896.12598403
514,19937983.3950112
545,0.0
2,1, 1, 1, 0,23,30.00,45.00,Sunday
9,4195896.12598403
514,20003301.9116615
545,0.0
2,1, 1, 1, 0,23,45.00,60.00,Sunday
9,4195896.12598403
514,20067234.2218819
545,0.0
2,1, 1, 1, 0,24, 0.00,15.00,Sunday
9,4195896.12598403
514,20096331.153924
545,0.0
2,1, 1, 1, 0,24,15.00,30.00,Sunday
9,4195896.12598403
514,20124717.2588324
545,0.0
2,1, 1, 1, 0,24,30.00,45.00,Sunday
9,4195896.12598403
514,20152709.4387941
545,0.0
2,1, 1, 1, 0,24,45.00,60.00,Sunday
9,4195896.12598403
514,20180494.6039413
545,0.0
2,2, 1, 2, 0, 1, 0.00,15.00,Monday
9,5422117.43275536
514,18901693.7899321
545,0.0
2,2, 1, 2, 0, 1,15.00,30.00,Monday
9,5422117.43275536
514,18846465.8129373
545,0.0
2,2, 1, 2, 0, 1,30.00,45.00,Monday
9,5422117.43275536
514,18786986.9172841
545,0.0
2,2, 1, 2, 0, 1,45.00,60.00,Monday
9,5422117.43275536
514,18724629.3852833
545,0.0
2,2, 1, 2, 0, 2, 0.00,15.00,Monday
9,5422117.43275536
514,18803736.6261434
545,0.0
2,2, 1, 2, 0, 2,15.00,30.00,Monday
9,5422117.43275536
514,18883913.7415749
545,0.0
2,2, 1, 2, 0, 2,30.00,45.00,Monday
9,5422117.43275536
514,18972746.2508855
545,0.0
2,2, 1, 2, 0, 2,45.00,60.00,Monday
9,5422117.43275536
514,19067140.6475056
545,0.0
2,2, 1, 2, 0, 3, 0.00,15.00,Monday
9,5422117.43275536
514,19056005.9653392
545,0.0
2,2, 1, 2, 0, 3,15.00,30.00,Monday
9,5422117.43275536
514,19042919.3912168
545,0.0
2,2, 1, 2, 0, 3,30.00,45.00,Monday
9,5422117.43275536
514,19022739.0515532
545,0.0
2,2, 1, 2, 0, 3,45.00,60.00,Monday
9,5422117.43275536
514,18997568.2321101
545,0.0
2,2, 1, 2, 0, 4, 0.00,15.00,Monday
9,5422117.43275536
514,19018864.8153096
545,0.0
2,2, 1, 2, 0, 4,15.00,30.00,Monday
9,5422117.43275536
514,19039250.8522203
545,0.0
2,2, 1, 2, 0, 4,30.00,45.00,Monday
9,5422117.43275536
514,19061751.0939337
545,0.0
2,2, 1, 2, 0, 4,45.00,60.00,Monday
9,5422117.43275536
514,19085410.6828832
545,0.0
2,2, 1, 2, 0, 5, 0.00,15.00,Monday
9,5422117.43275536
514,19038010.2934415
545,0.0
2,2, 1, 2, 0, 5,15.00,30.00,Monday
9,5422117.43275536
514,18990926.3380919
545,0.0
2,2, 1, 2, 0, 5,30.00,45.00,Monday
9,5422117.43275536
514,18944107.4499501
545,0.0
2,2, 1, 2, 0, 5,45.00,60.00,Monday
9,5422117.43275536
514,18897186.1062896
545,0.0
2,2, 1, 2, 0, 6, 0.00,15.00,Monday
9,5939349.6384254
514,18219707.7525486
545,0.0
2,2, 1, 2, 0, 6,15.00,30.00,Monday
9,5939349.6384254
514,18055127.2623062
545,0.0
2,2, 1, 2, 0, 6,30.00,45.00,Monday
9,5939349.6384254
514,17884934.3189217
545,0.0
2,2, 1, 2, 0, 6,45.00,60.00,Monday
9,5939349.6384254
514,17711484.6164465
545,0.0
2,2, 1, 2, 0, 7, 0.00,15.00,Monday
9,5939349.6384254
514,143997339.180139
545,0.0
2,2, 1, 2, 0, 7,15.00,30.00,Monday
9,5939349.6384254
514,71933167.9800517
545,0.0
2,2, 1, 2, 0, 7,30.00,45.00,Monday
9,5939349.6384254
514,101761988.732981
545,0.0
2,2, 1, 2, 0, 7,45.00,60.00,Monday
9,5939349.6384254
514,63978550.0310858
545,0.0
2,2, 1, 2, 0, 8, 0.00,15.00,Monday
9,8008278.46110554
514,63296697.0168593
545,0.0
2,2, 1, 2, 0, 8,15.00,30.00,Monday
9,8008278.46110554
514,60284374.1465718
545,0.0
2,2, 1, 2, 0, 8,30.00,45.00,Monday
9,8008278.46110554
514,57820855.0748322
545,0.0
2,2, 1, 2, 0, 8,45.00,60.00,Monday
9,8008278.46110554
514,55767529.8015514
545,0.0
2,2, 1, 2, 0, 9, 0.00,15.00,Monday
9,20346171.4630026
514,48565693.0981342
545,0.0
2,2, 1, 2, 0, 9,15.00,30.00,Monday
9,20346171.4630026
514,46495317.4303103
545,0.0
2,2, 1, 2, 0, 9,30.00,45.00,Monday
9,20346171.4630026
514,44639759.9987551
545,0.0
2,2, 1, 2, 0, 9,45.00,60.00,Monday
9,20346171.4630026
514,42892712.2370547
545,0.0
2,2, 1, 2, 0,10, 0.00,15.00,Monday
9,20346171.4630026
514,41354696.1677026
545,0.0
2,2, 1, 2, 0,10,15.00,30.00,Monday
9,20346171.4630026
514,39910392.683867
545,0.0
2,2, 1, 2, 0,10,30.00,45.00,Monday
9,20346171.4630026
514,38565043.8176301
545,0.0
2,2, 1, 2, 0,10,45.00,60.00,Monday
9,20346171.4630026
514,37296662.562583
545,0.0
2,2, 1, 2, 0,11, 0.00,15.00,Monday
9,20346171.4630026
514,35927081.2687923
545,0.0
2,2, 1, 2, 0,11,15.00,30.00,Monday
9,20346171.4630026
514,34600842.305435
545,0.0
2,2, 1, 2, 0,11,30.00,45.00,Monday
9,20346171.4630026
514,33381815.7899031
545,0.0
2,2, 1, 2, 0,11,45.00,60.00,Monday
9,20346171.4630026
514,32221148.7289142
545,0.0
2,2, 1, 2, 0,12, 0.00,15.00,Monday
9,20346171.4630026
514,31106401.9251942
545,0.0
2,2, 1, 2, 0,12,15.00,30.00,Monday
9,20346171.4630026
514,30022680.4009571
545,0.0
2,2, 1, 2, 0,12,30.00,45.00,Monday
9,20346171.4630026
514,29133171.0368394
545,0.0
2,2, 1, 2, 0,12,45.00,60.00,Monday
9,20346171.4630026
514,28397003.7662051
545,0.0
2,2, 1, 2, 0,13, 0.00,15.00,Monday
9,19119950.1562313
514,27292199.7527544
545,0.0
2,2, 1, 2, 0,13,15.00,30.00,Monday
9,19119950.1562313
514,26508100.5633324
545,0.0
2,2, 1, 2, 0,13,30.00,45.00,Monday
9,19119950.1562313
514,25715544.5276602
545,0.0
2,2, 1, 2, 0,13,45.00,60.00,Monday
9,19119950.1562313
514,24985379.7115178
545,0.0
2,2, 1, 2, 0,14, 0.00,15.00,Monday
9,20346171.4630026
514,24733176.3023685
545,0.0
2,2, 1, 2, 0,14,15.00,30.00,Monday
9,20346171.4630026
514,24277805.1568233
545,0.0
2,2, 1, 2, 0,14,30.00,45.00,Monday
9,20346171.4630026
514,23881542.0161005
545,0.0
2,2, 1, 2, 0,14,45.00,60.00,Monday
9,20346171.4630026
514,23519579.5361331
545,0.0
2,2, 1, 2, 0,15, 0.00,15.00,Monday
9,20346171.4630026
514,23172178.4953815
545,0.0
2,2, 1, 2, 0,15,15.00,30.00,Monday
9,20346171.4630026
514,22840055.7888386
545,0.0
2,2, 1, 2, 0,15,30.00,45.00,Monday
9,20346171.4630026
514,22551939.2983629
545,0.0
2,2, 1, 2, 0,15,45.00,60.00,Monday
9,20346171.4630026
514,22297992.4126925
545,0.0
2,2, 1, 2, 0,16, 0.00,15.00,Monday
9,20346171.4630026
514,22116376.5953753
545,0.0
2,2, 1, 2, 0,16,15.00,30.00,Monday
9,20346171.4630026
514,21943303.8434608
545,0.0
2,2, 1, 2, 0,16,30.00,45.00,Monday
9,20346171.4630026
514,21784505.3356273
545,0.0
2,2, 1, 2, 0,16,45.00,60.00,Monday
9,20346171.4630026
514,21640796.4864406
545,0.0
2,2, 1, 2, 0,17, 0.00,15.00,Monday
9,20346171.4630026
514,21725864.3205363
545,0.0
2,2, 1, 2, 0,17,15.00,30.00,Monday
9,20346171.4630026
514,21830817.1153074
545,0.0
2,2, 1, 2, 0,17,30.00,45.00,Monday
9,20346171.4630026
514,21959023.4470408
545,0.0
2,2, 1, 2, 0,17,45.00,60.00,Monday
9,20346171.4630026
514,22027457.0950978
545,0.0
2,2, 1, 2, 0,18, 0.00,15.00,Monday
9,17051021.3335512
514,23919935.7569644
545,0.0
2,2, 1, 2, 0,18,15.00,30.00,Monday
9,17051021.3335512
514,24003540.4171073
545,0.0
2,2, 1, 2, 0,18,30.00,45.00,Monday
9,17051021.3335512
514,24072027.2644684
545,0.0
2,2, 1, 2, 0,18,45.00,60.00,Monday
9,17051021.3335512
514,24134506.6471566
545,0.0
2,2, 1, 2, 0,19, 0.00,15.00,Monday
9,12529649.8973284
514,26288623.4843789
545,0.0
2,2, 1, 2, 0,19,15.00,30.00,Monday
9,12529649.8973284
514,26985140.8833993
545,0.0
2,2, 1, 2, 0,19,30.00,45.00,Monday
9,12529649.8973284
514,28199087.9913224
545,0.0
2,2, 1, 2, 0,19,45.00,60.00,Monday
9,12529649.8973284
514,27874434.9211153
545,0.0
2,2, 1, 2, 0,20, 0.00,15.00,Monday
9,12529649.8973284
514,28162765.9977013
545,0.0
2,2, 1, 2, 0,20,15.00,30.00,Monday
9,12529649.8973284
514,28199353.4420809
545,0.0
2,2, 1, 2, 0,20,30.00,45.00,Monday
9,12529649.8973284
514,28219875.1594271
545,0.0
2,2, 1, 2, 0,20,45.00,60.00,Monday
9,12529649.8973284
514,28230780.6021853
545,0.0
2,2, 1, 2, 0,21, 0.00,15.00,Monday
9,9234499.76787687
514,24470372.3764574
545,0.0
2,2, 1, 2, 0,21,15.00,30.00,Monday
9,9234499.76787687
514,24683293.1700962
545,0.0
2,2, 1, 2, 0,21,30.00,45.00,Monday
9,9234499.76787687
514,24809421.7469321
545,0.0
2,2, 1, 2, 0,21,45.00,60.00,Monday
9,9234499.76787687
514,24892336.88129
545,0.0
2,2, 1, 2, 0,22, 0.00,15.00,Monday
9,9234499.76787687
514,24906907.7718141
545,0.0
2,2, 1, 2, 0,22,15.00,30.00,Monday
9,9234499.76787687
514,24903204.449613
545,0.0
2,2, 1, 2, 0,22,30.00,45.00,Monday
9,9234499.76787687
514,24893953.8799765
545,0.0
2,2, 1, 2, 0,22,45.00,60.00,Monday
9,9234499.76787687
514,24879203.547276
545,0.0
2,2, 1, 2, 0,23, 0.00,15.00,Monday
9,5939349.6384254
514,0.0
545,0.0
2,2, 1, 2, 0,23,15.00,30.00,Monday
9,5939349.6384254
514,467304.872633371
545,0.0
2,2, 1, 2, 0,23,30.00,45.00,Monday
9,5939349.6384254
514,1618939.81015672
545,0.0
2,2, 1, 2, 0,23,45.00,60.00,Monday
9,5939349.6384254
514,1547035.90873992
545,0.0
2,2, 1, 2, 0,24, 0.00,15.00,Monday
9,5422117.43275536
514,3825706.04255246
545,0.0
2,2, 1, 2, 0,24,15.00,30.00,Monday
9,5422117.43275536
514,4279071.92935037
545,0.0
2,2, 1, 2, 0,24,30.00,45.00,Monday
9,5422117.43275536
514,4710036.05097428
545,0.0
2,2, 1, 2, 0,24,45.00,60.00,Monday
9,5422117.43275536
514,5040799.70065216
545,0.0
2,3, 1, 3, 0, 1, 0.00,15.00,Tuesday
9,5422117.43275536
514,5397840.58472997
545,0.0
2,3, 1, 3, 0, 1,15.00,30.00,Tuesday
9,5422117.43275536
514,5680363.98229194
545,0.0
2,3, 1, 3, 0, 1,30.00,45.00,Tuesday
9,5422117.43275536
514,5940411.20826756
545,0.0
2,3, 1, 3, 0, 1,45.00,60.00,Tuesday
9,5422117.43275536
514,6184100.76491759
545,0.0
2,3, 1, 3, 0, 2, 0.00,15.00,Tuesday
9,5422117.43275536
514,6331849.57089494
545,0.0
2,3, 1, 3, 0, 2,15.00,30.00,Tuesday
9,5422117.43275536
514,6465963.68549187
545,0.0
2,3, 1, 3, 0, 2,30.00,45.00,Tuesday
9,5422117.43275536
514,6592383.18131198
545,0.0
2,3, 1, 3, 0, 2,45.00,60.00,Tuesday
9,5422117.43275536
514,6712286.53010124
545,0.0
2,3, 1, 3, 0, 3, 0.00,15.00,Tuesday
9,5422117.43275536
514,6808007.43101086
545,0.0
2,3, 1, 3, 0, 3,15.00,30.00,Tuesday
9,5422117.43275536
514,6897067.49465408
545,0.0
2,3, 1, 3, 0, 3,30.00,45.00,Tuesday
9,5422117.43275536
514,6980425.01191318
545,0.0
2,3, 1, 3, 0, 3,45.00,60.00,Tuesday
9,5422117.43275536
514,7058626.56948611
545,0.0
2,3, 1, 3, 0, 4, 0.00,15.00,Tuesday
9,5422117.43275536
514,7100893.74579731
545,0.0
2,3, 1, 3, 0, 4,15.00,30.00,Tuesday
9,5422117.43275536
514,7137972.11338982
545,0.0
2,3, 1, 3, 0, 4,30.00,45.00,Tuesday
9,5422117.43275536
514,7170401.07406139
545,0.0
2,3, 1, 3, 0, 4,45.00,60.00,Tuesday
9,5422117.43275536
514,7198975.3604116
545,0.0
2,3, 1, 3, 0, 5, 0.00,15.00,Tuesday
9,5422117.43275536
514,7261580.74599746
545,0.0
2,3, 1, 3, 0, 5,15.00,30.00,Tuesday
9,5422117.43275536
514,7321198.20983313
545,0.0
2,3, 1, 3, 0, 5,30.00,45.00,Tuesday
9,5422117.43275536
514,7381026.99382059
545,0.0
2,3, 1, 3, 0, 5,45.00,60.00,Tuesday
9,5422117.43275536
514,7661433.09717049
545,0.0
2,3, 1, 3, 0, 6, 0.00,15.00,Tuesday
9,5939349.6384254
514,7438569.82785263
545,0.0
2,3, 1, 3, 0, 6,15.00,30.00,Tuesday
9,5939349.6384254
514,7570499.79990462
545,0.0
2,3, 1, 3, 0, 6,30.00,45.00,Tuesday
9,5939349.6384254
514,7667364.84952118
545,0.0
2,3, 1, 3, 0, 6,45.00,60.00,Tuesday
9,5939349.6384254
514,7756589.4098685
545,0.0
2,3, 1, 3, 0, 7, 0.00,15.00,Tuesday
9,5939349.6384254
514,112014464.614784
545,0.0
2,3, 1, 3, 0, 7,15.00,30.00,Tuesday
9,5939349.6384254
514,60566531.0140881
545,0.0
2,3, 1, 3, 0, 7,30.00,45.00,Tuesday
9,5939349.6384254
514,82892295.6706167
545,0.0
2,3, 1, 3, 0, 7,45.00,60.00,Tuesday
9,5939349.6384254
514,45497224.9282276
545,0.0
2,3, 1, 3, 0, 8, 0.00,15.00,Tuesday
9,8008278.46110554
514,46426984.6295644
545,0.0
2,3, 1, 3, 0, 8,15.00,30.00,Tuesday
9,8008278.46110554
514,44481473.639501
545,0.0
2,3, 1, 3, 0, 8,30.00,45.00,Tuesday
9,8008278.46110554
514,42940868.7715261
545,0.0
2,3, 1, 3, 0, 8,45.00,60.00,Tuesday
9,8008278.46110554
514,41684265.483269
545,0.0
2,3, 1, 3, 0, 9, 0.00,15.00,Tuesday
9,20346171.4630026
514,34232067.872217
545,0.0
2,3, 1, 3, 0, 9,15.00,30.00,Tuesday
9,20346171.4630026
514,33052003.3258056
545,0.0
2,3, 1, 3, 0, 9,30.00,45.00,Tuesday
9,20346171.4630026
514,32038816.442789
545,0.0
2,3, 1, 3, 0, 9,45.00,60.00,Tuesday
9,20346171.4630026
514,31109840.0163625
545,0.0
2,3, 1, 3, 0,10, 0.00,15.00,Tuesday
9,20346171.4630026
514,30378777.142848
545,0.0
2,3, 1, 3, 0,10,15.00,30.00,Tuesday
9,20346171.4630026
514,29707115.2507902
545,0.0
2,3, 1, 3, 0,10,30.00,45.00,Tuesday
9,20346171.4630026
514,29077155.6403676
545,0.0
2,3, 1, 3, 0,10,45.00,60.00,Tuesday
9,20346171.4630026
514,28481488.0750705
545,0.0
2,3, 1, 3, 0,11, 0.00,15.00,Tuesday
9,20346171.4630026
514,27767010.8194076
545,0.0
2,3, 1, 3, 0,11,15.00,30.00,Tuesday
9,20346171.4630026
514,27078838.3141312
545,0.0
2,3, 1, 3, 0,11,30.00,45.00,Tuesday
9,20346171.4630026
514,26442320.4224819
545,0.0
2,3, 1, 3, 0,11,45.00,60.00,Tuesday
9,20346171.4630026
514,25843467.2358398
545,0.0
2,3, 1, 3, 0,12, 0.00,15.00,Tuesday
9,20346171.4630026
514,25064818.4165807
545,0.0
2,3, 1, 3, 0,12,15.00,30.00,Tuesday
9,20346171.4630026
514,24301867.6637551
545,0.0
2,3, 1, 3, 0,12,30.00,45.00,Tuesday
9,20346171.4630026
514,23580501.7963784
545,0.0
2,3, 1, 3, 0,12,45.00,60.00,Tuesday
9,20346171.4630026
514,22892302.8912639
545,0.0
2,3, 1, 3, 0,13, 0.00,15.00,Tuesday
9,19119950.1562313
514,21906662.0841666
545,0.0
2,3, 1, 3, 0,13,15.00,30.00,Tuesday
9,19119950.1562313
514,21151156.3409346
545,0.0
2,3, 1, 3, 0,13,30.00,45.00,Tuesday
9,19119950.1562313
514,20426701.3268261
545,0.0
2,3, 1, 3, 0,13,45.00,60.00,Tuesday
9,19119950.1562313
514,19729127.8420507
545,0.0
2,3, 1, 3, 0,14, 0.00,15.00,Tuesday
9,20346171.4630026
514,19587232.9192213
545,0.0
2,3, 1, 3, 0,14,15.00,30.00,Tuesday
9,20346171.4630026
514,19311035.5120965
545,0.0
2,3, 1, 3, 0,14,30.00,45.00,Tuesday
9,20346171.4630026
514,19093622.4208915
545,0.0
2,3, 1, 3, 0,14,45.00,60.00,Tuesday
9,20346171.4630026
514,18912254.5785203
545,0.0
2,3, 1, 3, 0,15, 0.00,15.00,Tuesday
9,20346171.4630026
514,18812282.212304
545,0.0
2,3, 1, 3, 0,15,15.00,30.00,Tuesday
9,20346171.4630026
514,18726831.5840774
545,0.0
2,3, 1, 3, 0,15,30.00,45.00,Tuesday
9,20346171.4630026
514,18677919.1636677
545,0.0
2,3, 1, 3, 0,15,45.00,60.00,Tuesday
9,20346171.4630026
514,18659262.1355957
545,0.0
2,3, 1, 3, 0,16, 0.00,15.00,Tuesday
9,20346171.4630026
514,18793415.8399025
545,0.0
2,3, 1, 3, 0,16,15.00,30.00,Tuesday
9,20346171.4630026
514,18943138.3256856
545,0.0
2,3, 1, 3, 0,16,30.00,45.00,Tuesday
9,20346171.4630026
514,19110364.3247906
545,0.0
2,3, 1, 3, 0,16,45.00,60.00,Tuesday
9,20346171.4630026
514,19292662.0451589
545,0.0
2,3, 1, 3, 0,17, 0.00,15.00,Tuesday
9,20346171.4630026
514,19563347.208248
545,0.0
2,3, 1, 3, 0,17,15.00,30.00,Tuesday
9,20346171.4630026
514,19844110.3377086
545,0.0
2,3, 1, 3, 0,17,30.00,45.00,Tuesday
9,20346171.4630026
514,20083558.827338
545,0.0
2,3, 1, 3, 0,17,45.00,60.00,Tuesday
9,20346171.4630026
514,20343277.6522019
545,0.0
2,3, 1, 3, 0,18, 0.00,15.00,Tuesday
9,17051021.3335512
514,22549139.0976262
545,0.0
2,3, 1, 3, 0,18,15.00,30.00,Tuesday
9,17051021.3335512
514,22952296.015808
545,0.0
2,3, 1, 3, 0,18,30.00,45.00,Tuesday
9,17051021.3335512
514,23345490.9034709
545,0.0
2,3, 1, 3, 0,18,45.00,60.00,Tuesday
9,17051021.3335512
514,23737479.1046789
545,0.0
2,3, 1, 3, 0,19, 0.00,15.00,Tuesday
9,12529649.8973284
514,26041452.9626815
545,0.0
2,3, 1, 3, 0,19,15.00,30.00,Tuesday
9,12529649.8973284
514,26473770.9705936
545,0.0
2,3, 1, 3, 0,19,30.00,45.00,Tuesday
9,12529649.8973284
514,26992247.8525914
545,0.0
2,3, 1, 3, 0,19,45.00,60.00,Tuesday
9,12529649.8973284
514,28175991.8348837
545,0.0
2,3, 1, 3, 0,20, 0.00,15.00,Tuesday
9,12529649.8973284
514,28199846.3187652
545,0.0
2,3, 1, 3, 0,20,15.00,30.00,Tuesday
9,12529649.8973284
514,28979695.0398179
545,0.0
2,3, 1, 3, 0,20,30.00,45.00,Tuesday
9,12529649.8973284
514,29524467.9829343
545,0.0
2,3, 1, 3, 0,20,45.00,60.00,Tuesday
9,12529649.8973284
514,30055617.7548159
545,0.0
2,3, 1, 3, 0,21, 0.00,15.00,Tuesday
9,9234499.76787687
514,25171328.6449609
545,0.0
2,3, 1, 3, 0,21,15.00,30.00,Tuesday
9,9234499.76787687
514,25753201.1825416
545,0.0
2,3, 1, 3, 0,21,30.00,45.00,Tuesday
9,9234499.76787687
514,26250421.3947509
545,0.0
2,3, 1, 3, 0,21,45.00,60.00,Tuesday
9,9234499.76787687
514,26704842.563038
545,0.0
2,3, 1, 3, 0,22, 0.00,15.00,Tuesday
9,9234499.76787687
514,27132852.0256106
545,0.0
2,3, 1, 3, 0,22,15.00,30.00,Tuesday
9,9234499.76787687
514,27549249.6723033
545,0.0
2,3, 1, 3, 0,22,30.00,45.00,Tuesday
9,9234499.76787687
514,27950240.4384802
545,0.0
2,3, 1, 3, 0,22,45.00,60.00,Tuesday
9,9234499.76787687
514,28346086.1010647
545,0.0
2,3, 1, 3, 0,23, 0.00,15.00,Tuesday
9,5939349.6384254
514,0.0
545,0.0
2,3, 1, 3, 0,23,15.00,30.00,Tuesday
9,5939349.6384254
514,1136324.15821999
545,0.0
2,3, 1, 3, 0,23,30.00,45.00,Tuesday
9,5939349.6384254
514,3611048.38027265
545,0.0
2,3, 1, 3, 0,23,45.00,60.00,Tuesday
9,5939349.6384254
514,5320032.62732504
545,0.0
2,3, 1, 3, 0,24, 0.00,15.00,Tuesday
9,5422117.43275536
514,6086233.90505106
545,0.0
2,3, 1, 3, 0,24,15.00,30.00,Tuesday
9,5422117.43275536
514,6349273.7457219
545,0.0
2,3, 1, 3, 0,24,30.00,45.00,Tuesday
9,5422117.43275536
514,6634464.35589008
545,0.0
2,3, 1, 3, 0,24,45.00,60.00,Tuesday
9,5422117.43275536
514,6821755.63013061
545,0.0
2,4, 1, 4, 0, 1, 0.00,15.00,Wednesday
9,5422117.43275536
514,6936410.5718801
545,0.0
2,4, 1, 4, 0, 1,15.00,30.00,Wednesday
9,5422117.43275536
514,6975203.49444413
545,0.0
2,4, 1, 4, 0, 1,30.00,45.00,Wednesday
9,5422117.43275536
514,6990724.31891106
545,0.0
2,4, 1, 4, 0, 1,45.00,60.00,Wednesday
9,5422117.43275536
514,6988280.1384268
545,0.0
2,4, 1, 4, 0, 2, 0.00,15.00,Wednesday
9,5422117.43275536
514,7140425.52063962
545,0.0
2,4, 1, 4, 0, 2,15.00,30.00,Wednesday
9,5422117.43275536
514,7278714.39364816
545,0.0
2,4, 1, 4, 0, 2,30.00,45.00,Wednesday
9,5422117.43275536
514,7403961.14671434
545,0.0
2,4, 1, 4, 0, 2,45.00,60.00,Wednesday
9,5422117.43275536
514,7520504.64983259
545,0.0
2,4, 1, 4, 0, 3, 0.00,15.00,Wednesday
9,5422117.43275536
514,7676641.54431266
545,0.0
2,4, 1, 4, 0, 3,15.00,30.00,Wednesday
9,5422117.43275536
514,7826804.18123357
545,0.0
2,4, 1, 4, 0, 3,30.00,45.00,Wednesday
9,5422117.43275536
514,7971488.20702301
545,0.0
2,4, 1, 4, 0, 3,45.00,60.00,Wednesday
9,5422117.43275536
514,8111327.52676822
545,0.0
2,4, 1, 4, 0, 4, 0.00,15.00,Wednesday
9,5422117.43275536
514,8324028.34081636
545,0.0
2,4, 1, 4, 0, 4,15.00,30.00,Wednesday
9,5422117.43275536
514,8532616.00618282
545,0.0
2,4, 1, 4, 0, 4,30.00,45.00,Wednesday
9,5422117.43275536
514,8738335.08619162
545,0.0
2,4, 1, 4, 0, 4,45.00,60.00,Wednesday
9,5422117.43275536
514,9049662.98728621
545,0.0
2,4, 1, 4, 0, 5, 0.00,15.00,Wednesday
9,5422117.43275536
514,9369328.52534162
545,0.0
2,4, 1, 4, 0, 5,15.00,30.00,Wednesday
9,5422117.43275536
514,9512987.95830924
545,0.0
2,4, 1, 4, 0, 5,30.00,45.00,Wednesday
9,5422117.43275536
514,9980725.6062791
545,0.0
2,4, 1, 4, 0, 5,45.00,60.00,Wednesday
9,5422117.43275536
514,10458886.1982376
545,0.0
2,4, 1, 4, 0, 6, 0.00,15.00,Wednesday
9,5939349.6384254
514,10332501.1759141
545,0.0
2,4, 1, 4, 0, 6,15.00,30.00,Wednesday
9,5939349.6384254
514,10760876.5711284
545,0.0
2,4, 1, 4, 0, 6,30.00,45.00,Wednesday
9,5939349.6384254
514,11126582.8416919
545,0.0
2,4, 1, 4, 0, 6,45.00,60.00,Wednesday
9,5939349.6384254
514,11491208.2697352
545,0.0
2,4, 1, 4, 0, 7, 0.00,15.00,Wednesday
9,5939349.6384254
514,119743236.190651
545,0.0
2,4, 1, 4, 0, 7,15.00,30.00,Wednesday
9,5939349.6384254
514,66859174.7551129
545,0.0
2,4, 1, 4, 0, 7,30.00,45.00,Wednesday
9,5939349.6384254
514,88891015.949356
545,0.0
2,4, 1, 4, 0, 7,45.00,60.00,Wednesday
9,5939349.6384254
514,51074317.546103
545,0.0
2,4, 1, 4, 0, 8, 0.00,15.00,Wednesday
9,8008278.46110554
514,52766196.174605
545,0.0
2,4, 1, 4, 0, 8,15.00,30.00,Wednesday
9,8008278.46110554
514,50730730.6738774
545,0.0
2,4, 1, 4, 0, 8,30.00,45.00,Wednesday
9,8008278.46110554
514,49117214.4615492
545,0.0
2,4, 1, 4, 0, 8,45.00,60.00,Wednesday
9,8008278.46110554
514,47799065.1233283
545,0.0
2,4, 1, 4, 0, 9, 0.00,15.00,Wednesday
9,20346171.4630026
514,42230135.1779626
545,0.0
2,4, 1, 4, 0, 9,15.00,30.00,Wednesday
9,20346171.4630026
514,40840879.1804472
545,0.0
2,4, 1, 4, 0, 9,30.00,45.00,Wednesday
9,20346171.4630026
514,39623800.6768004
545,0.0
2,4, 1, 4, 0, 9,45.00,60.00,Wednesday
9,20346171.4630026
514,38504200.8135087
545,0.0
2,4, 1, 4, 0,10, 0.00,15.00,Wednesday
9,20346171.4630026
514,37300401.119385
545,0.0
2,4, 1, 4, 0,10,15.00,30.00,Wednesday
9,20346171.4630026
514,36159233.0964022
545,0.0
2,4, 1, 4, 0,10,30.00,45.00,Wednesday
9,20346171.4630026
514,35073520.2019143
545,0.0
2,4, 1, 4, 0,10,45.00,60.00,Wednesday
9,20346171.4630026
514,34030652.8856785
545,0.0
2,4, 1, 4, 0,11, 0.00,15.00,Wednesday
9,20346171.4630026
514,33236253.9003736
545,0.0
2,4, 1, 4, 0,11,15.00,30.00,Wednesday
9,20346171.4630026
514,32459584.5893048
545,0.0
2,4, 1, 4, 0,11,30.00,45.00,Wednesday
9,20346171.4630026
514,31755846.8866482
545,0.0
2,4, 1, 4, 0,11,45.00,60.00,Wednesday
9,20346171.4630026
514,31186588.9071354
545,0.0
2,4, 1, 4, 0,12, 0.00,15.00,Wednesday
9,20346171.4630026
514,30578394.4503536
545,0.0
2,4, 1, 4, 0,12,15.00,30.00,Wednesday
9,20346171.4630026
514,29987978.9497181
545,0.0
2,4, 1, 4, 0,12,30.00,45.00,Wednesday