Program Version,EnergyPlus, Version 8.5.0-c87e61b44b, YMD=2019.02.04 22:19
1,5,Environment Title[],Latitude[deg],Longitude[deg],Time Zone[],Elevation[m]
2,6,Day of Simulation[],Month[],Day of Month[],DST Indicator[1=yes 0=no],Hour[],StartMinute[],EndMinute[],DayType
3,3,Cumulative Day of Simulation[],Month[],Day of Month[],DST Indicator[1=yes 0=no],DayType  ! When Daily Meters Requested
4,2,Cumulative Days of Simulation[],Month[]  ! When Monthly Meters Requested
5,1,Cumulative Days of Simulation[] ! When Run Period Meters Requested
9,1,Electricity:Facility [J] !TimeStep
715,1,DistrictCooling:Facility [J] !TimeStep
684,1,DistrictHeating:Facility [J] !TimeStep
End of Data Dictionary
1,NAPLES ANN CLG .4% CONDNS DB=>MWB,  40.85,  14.30,   1.00,  72.00
2,1, 8,21, 0, 1, 0.00,15.00,SummerDesignDay
9,94249875.9997519
684,0.0
715,64344972.8278146
2,1, 8,21, 0, 1,15.00,30.00,SummerDesignDay
9,94249875.9997519
684,0.0
715,63932092.5457741
2,1, 8,21, 0, 1,30.00,45.00,SummerDesignDay
9,94249875.9997519
684,0.0
715,63240264.7756629
2,1, 8,21, 0, 1,45.00,60.00,SummerDesignDay
9,94249875.9997519
684,0.0
715,62567635.8698551
2,1, 8,21, 0, 2, 0.00,15.00,SummerDesignDay
9,94249875.9997519
684,0.0
715,62114067.1645753
2,1, 8,21, 0, 2,15.00,30.00,SummerDesignDay
9,94249875.9997519
684,0.0
715,61718953.5562101
2,1, 8,21, 0, 2,30.00,45.00,SummerDesignDay
9,94249875.9997519
684,0.0
715,61353467.3286915
2,1, 8,21, 0, 2,45.00,60.00,SummerDesignDay
9,94249875.9997519
684,0.0
715,61000467.9401677
2,1, 8,21, 0, 3, 0.00,15.00,SummerDesignDay
9,94249875.9997519
684,0.0
715,60732244.5261268
2,1, 8,21, 0, 3,15.00,30.00,SummerDesignDay
9,94249875.9997519
684,0.0
715,60469085.5629907
2,1, 8,21, 0, 3,30.00,45.00,SummerDesignDay
9,94249875.9997519
684,0.0
715,60204630.9522501
2,1, 8,21, 0, 3,45.00,60.00,SummerDesignDay
9,94249875.9997519
684,0.0
715,59936794.1800909
2,1, 8,21, 0, 4, 0.00,15.00,SummerDesignDay
9,94249875.9997519
684,0.0
715,59664775.477013
2,1, 8,21, 0, 4,15.00,30.00,SummerDesignDay
9,94249875.9997519
684,0.0
715,59388208.6159379
2,1, 8,21, 0, 4,30.00,45.00,SummerDesignDay
9,94249875.9997519
684,0.0
715,59106917.3641547
2,1, 8,21, 0, 4,45.00,60.00,SummerDesignDay
9,94249875.9997519
684,0.0
715,58820865.370267
2,1, 8,21, 0, 5, 0.00,15.00,SummerDesignDay
9,94249875.9997519
684,0.0
715,58612607.3879323
2,1, 8,21, 0, 5,15.00,30.00,SummerDesignDay
9,94249875.9997519
684,0.0
715,58405323.0756224
2,1, 8,21, 0, 5,30.00,45.00,SummerDesignDay
9,94249875.9997519
684,0.0
715,58194846.682755
2,1, 8,21, 0, 5,45.00,60.00,SummerDesignDay
9,94249875.9997519
684,0.0
715,57980551.3536286
2,1, 8,21, 0, 6, 0.00,15.00,SummerDesignDay
9,94249875.9997519
684,0.0
715,58095201.9041236
2,1, 8,21, 0, 6,15.00,30.00,SummerDesignDay
9,94249875.9997519
684,0.0
715,58545680.2175855
2,1, 8,21, 0, 6,30.00,45.00,SummerDesignDay
9,94249875.9997519
684,0.0
715,59739711.6135273
2,1, 8,21, 0, 6,45.00,60.00,SummerDesignDay
9,94249875.9997519
684,0.0
715,61044286.1150884
2,1, 8,21, 0, 7, 0.00,15.00,SummerDesignDay
9,94249875.9997519
684,0.0
715,267120983.335641
2,1, 8,21, 0, 7,15.00,30.00,SummerDesignDay
9,94249875.9997519
684,0.0
715,66594705.406575
2,1, 8,21, 0, 7,30.00,45.00,SummerDesignDay
9,94249875.9997519
684,0.0
715,197691418.939712
2,1, 8,21, 0, 7,45.00,60.00,SummerDesignDay
9,94249875.9997519
684,0.0
715,167424628.306857
2,1, 8,21, 0, 8, 0.00,15.00,SummerDesignDay
9,94249875.9997519
684,0.0
715,169647958.787664
2,1, 8,21, 0, 8,15.00,30.00,SummerDesignDay
9,94249875.9997519
684,0.0
715,171616575.245235
2,1, 8,21, 0, 8,30.00,45.00,SummerDesignDay
9,94249875.9997519
684,0.0
715,173888994.875831
2,1, 8,21, 0, 8,45.00,60.00,SummerDesignDay
9,94249875.9997519
684,0.0
715,176172750.49904
2,1, 8,21, 0, 9, 0.00,15.00,SummerDesignDay
9,94249875.9997519
684,0.0
715,178657561.323611
2,1, 8,21, 0, 9,15.00,30.00,SummerDesignDay
9,94249875.9997519
684,0.0
715,181133447.747365
2,1, 8,21, 0, 9,30.00,45.00,SummerDesignDay
9,94249875.9997519
684,0.0
715,183604266.147407
2,1, 8,21, 0, 9,45.00,60.00,SummerDesignDay
9,94249875.9997519
684,0.0
715,185800915.755962
2,1, 8,21, 0,10, 0.00,15.00,SummerDesignDay
9,94249875.9997519
684,0.0
715,187509597.503048
2,1, 8,21, 0,10,15.00,30.00,SummerDesignDay
9,94249875.9997519
684,0.0
715,189281516.816516
2,1, 8,21, 0,10,30.00,45.00,SummerDesignDay
9,94249875.9997519
684,0.0
715,191131108.222903
2,1, 8,21, 0,10,45.00,60.00,SummerDesignDay
9,94249875.9997519
684,0.0
715,193078439.273098
2,1, 8,21, 0,11, 0.00,15.00,SummerDesignDay
9,94249875.9997519
684,0.0
715,194820012.493771
2,1, 8,21, 0,11,15.00,30.00,SummerDesignDay
9,94249875.9997519
684,0.0
715,196682206.942231
2,1, 8,21, 0,11,30.00,45.00,SummerDesignDay
9,94249875.9997519
684,0.0
715,198962907.685448
2,1, 8,21, 0,11,45.00,60.00,SummerDesignDay
9,94249875.9997519
684,0.0
715,201338168.757717
2,1, 8,21, 0,12, 0.00,15.00,SummerDesignDay
9,94249875.9997519
684,0.0
715,202877110.621307
2,1, 8,21, 0,12,15.00,30.00,SummerDesignDay
9,94249875.9997519
684,0.0
715,204455840.245876
2,1, 8,21, 0,12,30.00,45.00,SummerDesignDay
9,94249875.9997519
684,0.0
715,206101240.674743
2,1, 8,21, 0,12,45.00,60.00,SummerDesignDay
9,94249875.9997519
684,0.0
715,207794776.911158
2,1, 8,21, 0,13, 0.00,15.00,SummerDesignDay
9,94249875.9997519
684,0.0
715,209194968.019901
2,1, 8,21, 0,13,15.00,30.00,SummerDesignDay
9,94249875.9997519
684,0.0
715,210617010.167589
2,1, 8,21, 0,13,30.00,45.00,SummerDesignDay
9,94249875.9997519
684,0.0
715,212057627.488518
2,1, 8,21, 0,13,45.00,60.00,SummerDesignDay
9,94249875.9997519
684,0.0
715,213504439.642588
2,1, 8,21, 0,14, 0.00,15.00,SummerDesignDay
9,94249875.9997519
684,0.0
715,214458325.635247
2,1, 8,21, 0,14,15.00,30.00,SummerDesignDay
9,94249875.9997519
684,0.0
715,215403967.473063
2,1, 8,21, 0,14,30.00,45.00,SummerDesignDay
9,94249875.9997519
684,0.0
715,216303818.924931
2,1, 8,21, 0,14,45.00,60.00,SummerDesignDay
9,94249875.9997519
684,0.0
715,217497524.554229
2,1, 8,21, 0,15, 0.00,15.00,SummerDesignDay
9,94249875.9997519
684,0.0
715,218026582.163622
2,1, 8,21, 0,15,15.00,30.00,SummerDesignDay
9,94249875.9997519
684,0.0
715,218631287.696482
2,1, 8,21, 0,15,30.00,45.00,SummerDesignDay
9,94249875.9997519
684,0.0
715,219284179.2513
2,1, 8,21, 0,15,45.00,60.00,SummerDesignDay
9,94249875.9997519
684,0.0
715,219943515.991875
2,1, 8,21, 0,16, 0.00,15.00,SummerDesignDay
9,94249875.9997519
684,0.0
715,219605476.637494
2,1, 8,21, 0,16,15.00,30.00,SummerDesignDay
9,94249875.9997519
684,0.0
715,219233456.931516
2,1, 8,21, 0,16,30.00,45.00,SummerDesignDay
9,94249875.9997519
684,0.0
715,218831102.568494
2,1, 8,21, 0,16,45.00,60.00,SummerDesignDay
9,94249875.9997519
684,0.0
715,218370473.768772
2,1, 8,21, 0,17, 0.00,15.00,SummerDesignDay
9,94249875.9997519
684,0.0
715,217501703.77647
2,1, 8,21, 0,17,15.00,30.00,SummerDesignDay
9,94249875.9997519
684,0.0
715,216521999.643092
2,1, 8,21, 0,17,30.00,45.00,SummerDesignDay
9,94249875.9997519
684,0.0
715,215273304.783881
2,1, 8,21, 0,17,45.00,60.00,SummerDesignDay
9,94249875.9997519
684,0.0
715,213963535.822875
2,1, 8,21, 0,18, 0.00,15.00,SummerDesignDay
9,94249875.9997519
684,0.0
715,212247883.262621
2,1, 8,21, 0,18,15.00,30.00,SummerDesignDay
9,94249875.9997519
684,0.0
715,210447581.200012
2,1, 8,21, 0,18,30.00,45.00,SummerDesignDay
9,94249875.9997519
684,0.0
715,208510638.077372
2,1, 8,21, 0,18,45.00,60.00,SummerDesignDay
9,94249875.9997519
684,0.0
715,206375343.854887
2,1, 8,21, 0,19, 0.00,15.00,SummerDesignDay
9,94249875.9997519
684,0.0
715,203014354.57728
2,1, 8,21, 0,19,15.00,30.00,SummerDesignDay
9,94249875.9997519
684,0.0
715,199300906.952716
2,1, 8,21, 0,19,30.00,45.00,SummerDesignDay
9,94249875.9997519
684,0.0
715,195552046.411029
2,1, 8,21, 0,19,45.00,60.00,SummerDesignDay
9,94249875.9997519
684,0.0
715,192334946.290019
2,1, 8,21, 0,20, 0.00,15.00,SummerDesignDay
9,94249875.9997519
684,0.0
715,190174638.985855
2,1, 8,21, 0,20,15.00,30.00,SummerDesignDay
9,94249875.9997519
684,0.0
715,188127117.499503
2,1, 8,21, 0,20,30.00,45.00,SummerDesignDay
9,94249875.9997519
684,0.0
715,186083606.473646
2,1, 8,21, 0,20,45.00,60.00,SummerDesignDay
9,94249875.9997519
684,0.0
715,184030550.103396
2,1, 8,21, 0,21, 0.00,15.00,SummerDesignDay
9,94249875.9997519
684,0.0
715,182285113.244686
2,1, 8,21, 0,21,15.00,30.00,SummerDesignDay
9,94249875.9997519
684,0.0
715,180537993.405085
2,1, 8,21, 0,21,30.00,45.00,SummerDesignDay
9,94249875.9997519
684,0.0
715,178782411.180986
2,1, 8,21, 0,21,45.00,60.00,SummerDesignDay
9,94249875.9997519
684,0.0
715,177013750.970657
2,1, 8,21, 0,22, 0.00,15.00,SummerDesignDay
9,94249875.9997519
684,0.0
715,175380090.456027
2,1, 8,21, 0,22,15.00,30.00,SummerDesignDay
9,94249875.9997519
684,0.0
715,174035349.646905
2,1, 8,21, 0,22,30.00,45.00,SummerDesignDay
9,94249875.9997519
684,0.0
715,172602955.206545
2,1, 8,21, 0,22,45.00,60.00,SummerDesignDay
9,94249875.9997519
684,0.0
715,171066743.229215
2,1, 8,21, 0,23, 0.00,15.00,SummerDesignDay
9,94249875.9997519
684,0.0
715,24923436.8104137
2,1, 8,21, 0,23,15.00,30.00,SummerDesignDay
9,94249875.9997519
684,0.0
715,48457563.503485
2,1, 8,21, 0,23,30.00,45.00,SummerDesignDay
9,94249875.9997519
684,0.0
715,61256705.8057578
2,1, 8,21, 0,23,45.00,60.00,SummerDesignDay
9,94249875.9997519
684,0.0
715,63519127.906914
2,1, 8,21, 0,24, 0.00,15.00,SummerDesignDay
9,94249875.9997519
684,0.0
715,64843470.9086393
2,1, 8,21, 0,24,15.00,30.00,SummerDesignDay
9,94249875.9997519
684,0.0
715,65326931.3811367
2,1, 8,21, 0,24,30.00,45.00,SummerDesignDay
9,94249875.9997519
684,0.0
715,65894951.9947219
2,1, 8,21, 0,24,45.00,60.00,SummerDesignDay
9,94249875.9997519
684,0.0
715,65081655.662249
1,NAPLES ANN CLG .4% CONDNS DP=>MDB,  40.85,  14.30,   1.00,  72.00
2,1, 8,21, 0, 1, 0.00,15.00,SummerDesignDay
9,94249875.9997519
684,0.0
715,48548597.5566882
2,1, 8,21, 0, 1,15.00,30.00,SummerDesignDay
9,94249875.9997519
684,0.0
715,48159655.5337915
2,1, 8,21, 0, 1,30.00,45.00,SummerDesignDay
9,94249875.9997519
684,0.0
715,47791385.3123492
2,1, 8,21, 0, 1,45.00,60.00,SummerDesignDay
9,94249875.9997519
684,0.0
715,46795155.268261
2,1, 8,21, 0, 2, 0.00,15.00,SummerDesignDay
9,94249875.9997519
684,0.0
715,45762279.6118745
2,1, 8,21, 0, 2,15.00,30.00,SummerDesignDay
9,94249875.9997519
684,0.0
715,44829882.6482718
2,1, 8,21, 0, 2,30.00,45.00,SummerDesignDay
9,94249875.9997519
684,0.0
715,44000453.0201643
2,1, 8,21, 0, 2,45.00,60.00,SummerDesignDay
9,94249875.9997519
684,0.0
715,43257980.9474034
2,1, 8,21, 0, 3, 0.00,15.00,SummerDesignDay
9,94249875.9997519
684,0.0
715,42642688.5252148
2,1, 8,21, 0, 3,15.00,30.00,SummerDesignDay
9,94249875.9997519
684,0.0
715,42084187.3862028
2,1, 8,21, 0, 3,30.00,45.00,SummerDesignDay
9,94249875.9997519
684,0.0
715,41569214.9695683
2,1, 8,21, 0, 3,45.00,60.00,SummerDesignDay
9,94249875.9997519
684,0.0
715,41088816.8838574
2,1, 8,21, 0, 4, 0.00,15.00,SummerDesignDay
9,94249875.9997519
684,0.0
715,40636159.8403533
2,1, 8,21, 0, 4,15.00,30.00,SummerDesignDay
9,94249875.9997519
684,0.0
715,40205801.5462573
2,1, 8,21, 0, 4,30.00,45.00,SummerDesignDay
9,94249875.9997519
684,0.0
715,39793347.6409525
2,1, 8,21, 0, 4,45.00,60.00,SummerDesignDay
9,94249875.9997519
684,0.0
715,39395249.4716537
2,1, 8,21, 0, 5, 0.00,15.00,SummerDesignDay
9,94249875.9997519
684,0.0
715,39067339.6664581
2,1, 8,21, 0, 5,15.00,30.00,SummerDesignDay
9,94249875.9997519
684,0.0
715,38753529.6917565
2,1, 8,21, 0, 5,30.00,45.00,SummerDesignDay
9,94249875.9997519
684,0.0
715,38450118.52937
2,1, 8,21, 0, 5,45.00,60.00,SummerDesignDay
9,94249875.9997519
684,0.0
715,38154997.7170284
2,1, 8,21, 0, 6, 0.00,15.00,SummerDesignDay
9,94249875.9997519
684,0.0
715,38101004.8788484
2,1, 8,21, 0, 6,15.00,30.00,SummerDesignDay
9,94249875.9997519
684,0.0
715,38248246.7574553
2,1, 8,21, 0, 6,30.00,45.00,SummerDesignDay
9,94249875.9997519
684,0.0
715,38823372.6021418
2,1, 8,21, 0, 6,45.00,60.00,SummerDesignDay
9,94249875.9997519
684,0.0
715,39499546.4877669
2,1, 8,21, 0, 7, 0.00,15.00,SummerDesignDay
9,94249875.9997519
684,0.0
715,228729481.699377
2,1, 8,21, 0, 7,15.00,30.00,SummerDesignDay
9,94249875.9997519
684,0.0
715,29205711.9263185
2,1, 8,21, 0, 7,30.00,45.00,SummerDesignDay
9,94249875.9997519
684,0.0
715,152589663.347935
2,1, 8,21, 0, 7,45.00,60.00,SummerDesignDay
9,94249875.9997519
684,0.0
715,126133390.541499
2,1, 8,21, 0, 8, 0.00,15.00,SummerDesignDay
9,94249875.9997519
684,0.0
715,126682415.369248
2,1, 8,21, 0, 8,15.00,30.00,SummerDesignDay
9,94249875.9997519
684,0.0
715,129463990.06347
2,1, 8,21, 0, 8,30.00,45.00,SummerDesignDay
9,94249875.9997519
684,0.0
715,132489065.875472
2,1, 8,21, 0, 8,45.00,60.00,SummerDesignDay
9,94249875.9997519
684,0.0
715,135629929.65373
2,1, 8,21, 0, 9, 0.00,15.00,SummerDesignDay
9,94249875.9997519
684,0.0
715,139209126.611671
2,1, 8,21, 0, 9,15.00,30.00,SummerDesignDay
9,94249875.9997519
684,0.0
715,142880348.830393
2,1, 8,21, 0, 9,30.00,45.00,SummerDesignDay
9,94249875.9997519
684,0.0
715,148129046.795536
2,1, 8,21, 0, 9,45.00,60.00,SummerDesignDay
9,94249875.9997519
684,0.0
715,153688715.4251
2,1, 8,21, 0,10, 0.00,15.00,SummerDesignDay
9,94249875.9997519
684,0.0
715,160304903.113697
2,1, 8,21, 0,10,15.00,30.00,SummerDesignDay
9,94249875.9997519
684,0.0
715,166910569.460363
2,1, 8,21, 0,10,30.00,45.00,SummerDesignDay
9,94249875.9997519
684,0.0
715,172918961.214249
2,1, 8,21, 0,10,45.00,60.00,SummerDesignDay
9,94249875.9997519
684,0.0
715,178547337.850131
2,1, 8,21, 0,11, 0.00,15.00,SummerDesignDay
9,94249875.9997519
684,0.0
715,183699100.447621
2,1, 8,21, 0,11,15.00,30.00,SummerDesignDay
9,94249875.9997519
684,0.0
715,188819194.583249
2,1, 8,21, 0,11,30.00,45.00,SummerDesignDay
9,94249875.9997519
684,0.0
715,193837172.107742
2,1, 8,21, 0,11,45.00,60.00,SummerDesignDay
9,94249875.9997519
684,0.0
715,198055627.529325
2,1, 8,21, 0,12, 0.00,15.00,SummerDesignDay
9,94249875.9997519
684,0.0
715,200466153.355001
2,1, 8,21, 0,12,15.00,30.00,SummerDesignDay
9,94249875.9997519
684,0.0
715,202391506.580697
2,1, 8,21, 0,12,30.00,45.00,SummerDesignDay
9,94249875.9997519
684,0.0
715,204148292.375294
2,1, 8,21, 0,12,45.00,60.00,SummerDesignDay
9,94249875.9997519
684,0.0
715,205869680.045931
2,1, 8,21, 0,13, 0.00,15.00,SummerDesignDay
9,94249875.9997519
684,0.0
715,207205156.674295
2,1, 8,21, 0,13,15.00,30.00,SummerDesignDay
9,94249875.9997519
684,0.0
715,208557685.467458
2,1, 8,21, 0,13,30.00,45.00,SummerDesignDay
9,94249875.9997519
684,0.0
715,209932004.388904
2,1, 8,21, 0,13,45.00,60.00,SummerDesignDay
9,94249875.9997519
684,0.0
715,211315277.387439
2,1, 8,21, 0,14, 0.00,15.00,SummerDesignDay
9,94249875.9997519
684,0.0
715,212117135.936957
2,1, 8,21, 0,14,15.00,30.00,SummerDesignDay
9,94249875.9997519
684,0.0
715,212937114.787455
2,1, 8,21, 0,14,30.00,45.00,SummerDesignDay
9,94249875.9997519
684,0.0
715,213740211.621497
2,1, 8,21, 0,14,45.00,60.00,SummerDesignDay
9,94249875.9997519
684,0.0
715,214886590.307525
2,1, 8,21, 0,15, 0.00,15.00,SummerDesignDay
9,94249875.9997519
684,0.0
715,215248225.148535
2,1, 8,21, 0,15,15.00,30.00,SummerDesignDay
9,94249875.9997519
684,0.0
715,215730982.094751
2,1, 8,21, 0,15,30.00,45.00,SummerDesignDay
9,94249875.9997519
684,0.0
715,216306595.850174
2,1, 8,21, 0,15,45.00,60.00,SummerDesignDay
9,94249875.9997519
684,0.0
715,216918891.703221
2,1, 8,21, 0,16, 0.00,15.00,SummerDesignDay
9,94249875.9997519
684,0.0
715,216379763.715302
2,1, 8,21, 0,16,15.00,30.00,SummerDesignDay
9,94249875.9997519
684,0.0
715,215864696.472507
2,1, 8,21, 0,16,30.00,45.00,SummerDesignDay
9,94249875.9997519
684,0.0
715,215395770.134198
2,1, 8,21, 0,16,45.00,60.00,SummerDesignDay
9,94249875.9997519
684,0.0
715,214921439.483679
2,1, 8,21, 0,17, 0.00,15.00,SummerDesignDay
9,94249875.9997519
684,0.0
715,214015110.722774
2,1, 8,21, 0,17,15.00,30.00,SummerDesignDay
9,94249875.9997519
684,0.0
715,213031427.004216
2,1, 8,21, 0,17,30.00,45.00,SummerDesignDay
9,94249875.9997519
684,0.0
715,211794344.761857
2,1, 8,21, 0,17,45.00,60.00,SummerDesignDay
9,94249875.9997519
684,0.0
715,210535614.130472
2,1, 8,21, 0,18, 0.00,15.00,SummerDesignDay
9,94249875.9997519
684,0.0
715,208852565.865965
2,1, 8,21, 0,18,15.00,30.00,SummerDesignDay
9,94249875.9997519
684,0.0
715,207127212.248297
2,1, 8,21, 0,18,30.00,45.00,SummerDesignDay
9,94249875.9997519
684,0.0
715,205296448.959985
2,1, 8,21, 0,18,45.00,60.00,SummerDesignDay
9,94249875.9997519
684,0.0
715,203289313.762683
2,1, 8,21, 0,19, 0.00,15.00,SummerDesignDay
9,94249875.9997519
684,0.0
715,199912575.602227
2,1, 8,21, 0,19,15.00,30.00,SummerDesignDay
9,94249875.9997519
684,0.0
715,196217668.749471
2,1, 8,21, 0,19,30.00,45.00,SummerDesignDay
9,94249875.9997519
684,0.0
715,192542409.070473
2,1, 8,21, 0,19,45.00,60.00,SummerDesignDay
9,94249875.9997519
684,0.0
715,188810653.153324
2,1, 8,21, 0,20, 0.00,15.00,SummerDesignDay
9,94249875.9997519
684,0.0
715,185427650.85287
2,1, 8,21, 0,20,15.00,30.00,SummerDesignDay
9,94249875.9997519
684,0.0
715,181682201.411105
2,1, 8,21, 0,20,30.00,45.00,SummerDesignDay
9,94249875.9997519
684,0.0
715,177758916.390831
2,1, 8,21, 0,20,45.00,60.00,SummerDesignDay
9,94249875.9997519
684,0.0
715,173793151.012136
2,1, 8,21, 0,21, 0.00,15.00,SummerDesignDay
9,94249875.9997519
684,0.0
715,170218229.54594
2,1, 8,21, 0,21,15.00,30.00,SummerDesignDay
9,94249875.9997519
684,0.0
715,166724073.311672
2,1, 8,21, 0,21,30.00,45.00,SummerDesignDay
9,94249875.9997519
684,0.0
715,163309004.48973
2,1, 8,21, 0,21,45.00,60.00,SummerDesignDay
9,94249875.9997519
684,0.0
715,159949004.844295
2,1, 8,21, 0,22, 0.00,15.00,SummerDesignDay
9,94249875.9997519
684,0.0
715,156622636.450824
2,1, 8,21, 0,22,15.00,30.00,SummerDesignDay
9,94249875.9997519
684,0.0
715,153319220.959746
2,1, 8,21, 0,22,30.00,45.00,SummerDesignDay
9,94249875.9997519
684,0.0
715,150036445.919161
2,1, 8,21, 0,22,45.00,60.00,SummerDesignDay
9,94249875.9997519
684,0.0
715,146774621.008814
2,1, 8,21, 0,23, 0.00,15.00,SummerDesignDay
9,94249875.9997519
684,0.0
715,15581168.678621
2,1, 8,21, 0,23,15.00,30.00,SummerDesignDay
9,94249875.9997519
684,0.0
715,29716677.9186688
2,1, 8,21, 0,23,30.00,45.00,SummerDesignDay
9,94249875.9997519
684,0.0
715,42471977.1521586
2,1, 8,21, 0,23,45.00,60.00,SummerDesignDay
9,94249875.9997519
684,0.0
715,46513726.2329101
2,1, 8,21, 0,24, 0.00,15.00,SummerDesignDay
9,94249875.9997519
684,0.0
715,48591487.5637979
2,1, 8,21, 0,24,15.00,30.00,SummerDesignDay
9,94249875.9997519
684,0.0
715,49506036.0855357
2,1, 8,21, 0,24,30.00,45.00,SummerDesignDay
9,94249875.9997519
684,0.0
715,49077739.4393481
2,1, 8,21, 0,24,45.00,60.00,SummerDesignDay
9,94249875.9997519
684,0.0
715,48576792.0447011
1,NAPLES ANN CLG .4% CONDNS ENTH=>MDB,  40.85,  14.30,   1.00,  72.00
2,1, 8,21, 0, 1, 0.00,15.00,SummerDesignDay
9,94249875.9997519
684,0.0
715,55973897.9132544
2,1, 8,21, 0, 1,15.00,30.00,SummerDesignDay
9,94249875.9997519
684,0.0
715,55367951.6368447
2,1, 8,21, 0, 1,30.00,45.00,SummerDesignDay
9,94249875.9997519
684,0.0
715,54720216.246146
2,1, 8,21, 0, 1,45.00,60.00,SummerDesignDay
9,94249875.9997519
684,0.0
715,53826613.3042746
2,1, 8,21, 0, 2, 0.00,15.00,SummerDesignDay
9,94249875.9997519
684,0.0
715,52545812.2561179
2,1, 8,21, 0, 2,15.00,30.00,SummerDesignDay
9,94249875.9997519
684,0.0
715,51500398.7166979
2,1, 8,21, 0, 2,30.00,45.00,SummerDesignDay
9,94249875.9997519
684,0.0
715,50583551.8480459
2,1, 8,21, 0, 2,45.00,60.00,SummerDesignDay
9,94249875.9997519
684,0.0
715,49782258.2593397
2,1, 8,21, 0, 3, 0.00,15.00,SummerDesignDay
9,94249875.9997519
684,0.0
715,49129968.0715589
2,1, 8,21, 0, 3,15.00,30.00,SummerDesignDay
9,94249875.9997519
684,0.0
715,48550406.8008957
2,1, 8,21, 0, 3,30.00,45.00,SummerDesignDay
9,94249875.9997519
684,0.0
715,48025211.4629612
2,1, 8,21, 0, 3,45.00,60.00,SummerDesignDay
9,94249875.9997519
684,0.0
715,47541992.3569472
2,1, 8,21, 0, 4, 0.00,15.00,SummerDesignDay
9,94249875.9997519
684,0.0
715,47091649.1410433
2,1, 8,21, 0, 4,15.00,30.00,SummerDesignDay
9,94249875.9997519
684,0.0
715,46667166.3326813
2,1, 8,21, 0, 4,30.00,45.00,SummerDesignDay
9,94249875.9997519
684,0.0
715,46263001.9661829
2,1, 8,21, 0, 4,45.00,60.00,SummerDesignDay
9,94249875.9997519
684,0.0
715,45874755.2044919
2,1, 8,21, 0, 5, 0.00,15.00,SummerDesignDay
9,94249875.9997519
684,0.0
715,45556723.8766213
2,1, 8,21, 0, 5,15.00,30.00,SummerDesignDay
9,94249875.9997519
684,0.0
715,45253321.464381
2,1, 8,21, 0, 5,30.00,45.00,SummerDesignDay
9,94249875.9997519
684,0.0
715,44960644.4900109
2,1, 8,21, 0, 5,45.00,60.00,SummerDesignDay
9,94249875.9997519
684,0.0
715,44676355.7206287
2,1, 8,21, 0, 6, 0.00,15.00,SummerDesignDay
9,94249875.9997519
684,0.0
715,44629614.9728304
2,1, 8,21, 0, 6,15.00,30.00,SummerDesignDay
9,94249875.9997519
684,0.0
715,44778577.7011711
2,1, 8,21, 0, 6,30.00,45.00,SummerDesignDay
9,94249875.9997519
684,0.0
715,45342871.5106578
2,1, 8,21, 0, 6,45.00,60.00,SummerDesignDay
9,94249875.9997519
684,0.0
715,46005388.162197
2,1, 8,21, 0, 7, 0.00,15.00,SummerDesignDay
9,94249875.9997519
684,0.0
715,258703109.28432
2,1, 8,21, 0, 7,15.00,30.00,SummerDesignDay
9,94249875.9997519
684,0.0
715,39134247.699472
2,1, 8,21, 0, 7,30.00,45.00,SummerDesignDay
9,94249875.9997519
684,0.0
715,175867429.630092
2,1, 8,21, 0, 7,45.00,60.00,SummerDesignDay
9,94249875.9997519
684,0.0
715,142184582.368677
2,1, 8,21, 0, 8, 0.00,15.00,SummerDesignDay
9,94249875.9997519
684,0.0
715,143287232.087214
2,1, 8,21, 0, 8,15.00,30.00,SummerDesignDay
9,94249875.9997519
684,0.0
715,145656483.413497
2,1, 8,21, 0, 8,30.00,45.00,SummerDesignDay
9,94249875.9997519
684,0.0
715,149022620.188404
2,1, 8,21, 0, 8,45.00,60.00,SummerDesignDay
9,94249875.9997519
684,0.0
715,153587173.076775
2,1, 8,21, 0, 9, 0.00,15.00,SummerDesignDay
9,94249875.9997519
684,0.0
715,158489646.905344
2,1, 8,21, 0, 9,15.00,30.00,SummerDesignDay
9,94249875.9997519
684,0.0
715,163324465.255393
2,1, 8,21, 0, 9,30.00,45.00,SummerDesignDay
9,94249875.9997519
684,0.0
715,170210170.893619
2,1, 8,21, 0, 9,45.00,60.00,SummerDesignDay
9,94249875.9997519
684,0.0
715,177123788.332675
2,1, 8,21, 0,10, 0.00,15.00,SummerDesignDay
9,94249875.9997519
684,0.0
715,183324941.979187
2,1, 8,21, 0,10,15.00,30.00,SummerDesignDay
9,94249875.9997519
684,0.0
715,189185829.862324
2,1, 8,21, 0,10,30.00,45.00,SummerDesignDay
9,94249875.9997519
684,0.0
715,194842853.381132
2,1, 8,21, 0,10,45.00,60.00,SummerDesignDay
9,94249875.9997519
684,0.0
715,200466534.723817
2,1, 8,21, 0,11, 0.00,15.00,SummerDesignDay
9,94249875.9997519
684,0.0
715,205792703.272102
2,1, 8,21, 0,11,15.00,30.00,SummerDesignDay
9,94249875.9997519
684,0.0
715,211192924.362201
2,1, 8,21, 0,11,30.00,45.00,SummerDesignDay
9,94249875.9997519
684,0.0
715,216952094.364967
2,1, 8,21, 0,11,45.00,60.00,SummerDesignDay
9,94249875.9997519
684,0.0
715,222812178.024455
2,1, 8,21, 0,12, 0.00,15.00,SummerDesignDay
9,94249875.9997519
684,0.0
715,227678318.905845
2,1, 8,21, 0,12,15.00,30.00,SummerDesignDay
9,94249875.9997519
684,0.0
715,232333218.383109
2,1, 8,21, 0,12,30.00,45.00,SummerDesignDay
9,94249875.9997519
684,0.0
715,236765718.656463
2,1, 8,21, 0,12,45.00,60.00,SummerDesignDay
9,94249875.9997519
684,0.0
715,241063852.415878
2,1, 8,21, 0,13, 0.00,15.00,SummerDesignDay
9,94249875.9997519
684,0.0
715,244896574.957199
2,1, 8,21, 0,13,15.00,30.00,SummerDesignDay
9,94249875.9997519
684,0.0
715,248630239.647136
2,1, 8,21, 0,13,30.00,45.00,SummerDesignDay
9,94249875.9997519
684,0.0
715,252267497.636612
2,1, 8,21, 0,13,45.00,60.00,SummerDesignDay
9,94249875.9997519
684,0.0
715,255843614.100595
2,1, 8,21, 0,14, 0.00,15.00,SummerDesignDay
9,94249875.9997519
684,0.0
715,258728212.612914
2,1, 8,21, 0,14,15.00,30.00,SummerDesignDay
9,94249875.9997519
684,0.0
715,261421940.835643
2,1, 8,21, 0,14,30.00,45.00,SummerDesignDay
9,94249875.9997519
684,0.0
715,263857467.572831
2,1, 8,21, 0,14,45.00,60.00,SummerDesignDay
9,94249875.9997519
684,0.0
715,266548233.975876
2,1, 8,21, 0,15, 0.00,15.00,SummerDesignDay
9,94249875.9997519
684,0.0
715,268243241.398807
2,1, 8,21, 0,15,15.00,30.00,SummerDesignDay
9,94249875.9997519
684,0.0
715,269682306.174088
2,1, 8,21, 0,15,30.00,45.00,SummerDesignDay
9,94249875.9997519
684,0.0
715,270890760.131397
2,1, 8,21, 0,15,45.00,60.00,SummerDesignDay
9,94249875.9997519
684,0.0
715,271871319.953109
2,1, 8,21, 0,16, 0.00,15.00,SummerDesignDay
9,94249875.9997519
684,0.0
715,271244042.772813
2,1, 8,21, 0,16,15.00,30.00,SummerDesignDay
9,94249875.9997519
684,0.0
715,270193791.648082
2,1, 8,21, 0,16,30.00,45.00,SummerDesignDay
9,94249875.9997519
684,0.0
715,268672741.11499
2,1, 8,21, 0,16,45.00,60.00,SummerDesignDay
9,94249875.9997519
684,0.0
715,266818767.979632
2,1, 8,21, 0,17, 0.00,15.00,SummerDesignDay
9,94249875.9997519
684,0.0
715,264298136.944134
2,1, 8,21, 0,17,15.00,30.00,SummerDesignDay
9,94249875.9997519
684,0.0
715,261509452.734329
2,1, 8,21, 0,17,30.00,45.00,SummerDesignDay
9,94249875.9997519
684,0.0
715,258257247.82325
2,1, 8,21, 0,17,45.00,60.00,SummerDesignDay
9,94249875.9997519
684,0.0
715,254900585.576639
2,1, 8,21, 0,18, 0.00,15.00,SummerDesignDay
9,94249875.9997519
684,0.0
715,251070143.473936
2,1, 8,21, 0,18,15.00,30.00,SummerDesignDay
9,94249875.9997519
684,0.0
715,247135620.057468
2,1, 8,21, 0,18,30.00,45.00,SummerDesignDay
9,94249875.9997519
684,0.0
715,242972341.587084
2,1, 8,21, 0,18,45.00,60.00,SummerDesignDay
9,94249875.9997519
684,0.0
715,238556494.264594
2,1, 8,21, 0,19, 0.00,15.00,SummerDesignDay
9,94249875.9997519
684,0.0
715,232639773.714079
2,1, 8,21, 0,19,15.00,30.00,SummerDesignDay
9,94249875.9997519
684,0.0
715,226171176.305265
2,1, 8,21, 0,19,30.00,45.00,SummerDesignDay
9,94249875.9997519
684,0.0
715,219527166.403685
2,1, 8,21, 0,19,45.00,60.00,SummerDesignDay
9,94249875.9997519
684,0.0
715,213369201.706797
2,1, 8,21, 0,20, 0.00,15.00,SummerDesignDay
9,94249875.9997519
684,0.0
715,208453734.094945
2,1, 8,21, 0,20,15.00,30.00,SummerDesignDay
9,94249875.9997519
684,0.0
715,203872472.463633
2,1, 8,21, 0,20,30.00,45.00,SummerDesignDay
9,94249875.9997519
684,0.0
715,199499709.63902
2,1, 8,21, 0,20,45.00,60.00,SummerDesignDay
9,94249875.9997519
684,0.0
715,195262393.433279
2,1, 8,21, 0,21, 0.00,15.00,SummerDesignDay
9,94249875.9997519
684,0.0
715,191469399.414121
2,1, 8,21, 0,21,15.00,30.00,SummerDesignDay
9,94249875.9997519
684,0.0
715,187780414.647148
2,1, 8,21, 0,21,30.00,45.00,SummerDesignDay
9,94249875.9997519
684,0.0
715,184197456.699562
2,1, 8,21, 0,21,45.00,60.00,SummerDesignDay
9,94249875.9997519
684,0.0
715,180671974.771091
2,1, 8,21, 0,22, 0.00,15.00,SummerDesignDay
9,94249875.9997519
684,0.0
715,177185070.988343
2,1, 8,21, 0,22,15.00,30.00,SummerDesignDay
9,94249875.9997519
684,0.0
715,173724193.199388
2,1, 8,21, 0,22,30.00,45.00,SummerDesignDay
9,94249875.9997519
684,0.0
715,170284936.095142
2,1, 8,21, 0,22,45.00,60.00,SummerDesignDay
9,94249875.9997519
684,0.0
715,166866771.0224
2,1, 8,21, 0,23, 0.00,15.00,SummerDesignDay
9,94249875.9997519
684,0.0
715,19209207.142435
2,1, 8,21, 0,23,15.00,30.00,SummerDesignDay
9,94249875.9997519
684,0.0
715,37934790.4429429
2,1, 8,21, 0,23,30.00,45.00,SummerDesignDay
9,94249875.9997519
684,0.0
715,51119857.60384
2,1, 8,21, 0,23,45.00,60.00,SummerDesignDay
9,94249875.9997519
684,0.0
715,55067814.2091181
2,1, 8,21, 0,24, 0.00,15.00,SummerDesignDay
9,94249875.9997519
684,0.0
715,56557132.3329238
2,1, 8,21, 0,24,15.00,30.00,SummerDesignDay
9,94249875.9997519
684,0.0
715,57211398.805996
2,1, 8,21, 0,24,30.00,45.00,SummerDesignDay
9,94249875.9997519
684,0.0
715,56748485.4780139
2,1, 8,21, 0,24,45.00,60.00,SummerDesignDay
9,94249875.9997519
684,0.0
715,56224869.6242882
1,NAPLES ANN CLG .4% CONDNS WB=>MDB,  40.85,  14.30,   1.00,  72.00
2,1, 8,21, 0, 1, 0.00,15.00,SummerDesignDay
9,94249875.9997519
684,0.0
715,55890520.2634976
2,1, 8,21, 0, 1,15.00,30.00,SummerDesignDay
9,94249875.9997519
684,0.0
715,55286530.8770376
2,1, 8,21, 0, 1,30.00,45.00,SummerDesignDay
9,94249875.9997519
684,0.0
715,54640736.0488322
2,1, 8,21, 0, 1,45.00,60.00,SummerDesignDay
9,94249875.9997519
684,0.0
715,53763042.6007222
2,1, 8,21, 0, 2, 0.00,15.00,SummerDesignDay
9,94249875.9997519
684,0.0
715,52471076.8356802
2,1, 8,21, 0, 2,15.00,30.00,SummerDesignDay
9,94249875.9997519
684,0.0
715,51427023.6678679
2,1, 8,21, 0, 2,30.00,45.00,SummerDesignDay
9,94249875.9997519
684,0.0
715,50511163.4145402
2,1, 8,21, 0, 2,45.00,60.00,SummerDesignDay
9,94249875.9997519
684,0.0
715,49710823.8296994
2,1, 8,21, 0, 3, 0.00,15.00,SummerDesignDay
9,94249875.9997519
684,0.0
715,49059568.8331214
2,1, 8,21, 0, 3,15.00,30.00,SummerDesignDay
9,94249875.9997519
684,0.0
715,48481113.2766287
2,1, 8,21, 0, 3,30.00,45.00,SummerDesignDay
9,94249875.9997519
684,0.0
715,47957071.0876185
2,1, 8,21, 0, 3,45.00,60.00,SummerDesignDay
9,94249875.9997519
684,0.0
715,47475037.173568
2,1, 8,21, 0, 4, 0.00,15.00,SummerDesignDay
9,94249875.9997519
684,0.0
715,47025903.1851434
2,1, 8,21, 0, 4,15.00,30.00,SummerDesignDay
9,94249875.9997519
684,0.0
715,46602648.5855353
2,1, 8,21, 0, 4,30.00,45.00,SummerDesignDay
9,94249875.9997519
684,0.0
715,46199726.6618655
2,1, 8,21, 0, 4,45.00,60.00,SummerDesignDay
9,94249875.9997519
684,0.0
715,45812731.4862808
2,1, 8,21, 0, 5, 0.00,15.00,SummerDesignDay
9,94249875.9997519
684,0.0
715,45495962.9390198
2,1, 8,21, 0, 5,15.00,30.00,SummerDesignDay
9,94249875.9997519
684,0.0
715,45193823.6913822
2,1, 8,21, 0, 5,30.00,45.00,SummerDesignDay
9,94249875.9997519
684,0.0
715,44902403.8024495
2,1, 8,21, 0, 5,45.00,60.00,SummerDesignDay
9,94249875.9997519
684,0.0
715,44619361.8575011
2,1, 8,21, 0, 6, 0.00,15.00,SummerDesignDay
9,94249875.9997519
684,0.0
715,44573878.581198
2,1, 8,21, 0, 6,15.00,30.00,SummerDesignDay
9,94249875.9997519
684,0.0
715,44724190.460932
2,1, 8,21, 0, 6,30.00,45.00,SummerDesignDay
9,94249875.9997519
684,0.0
715,45290061.1214755
2,1, 8,21, 0, 6,45.00,60.00,SummerDesignDay
9,94249875.9997519
684,0.0
715,45954185.5529988
2,1, 8,21, 0, 7, 0.00,15.00,SummerDesignDay
9,94249875.9997519
684,0.0
715,258611712.645066
2,1, 8,21, 0, 7,15.00,30.00,SummerDesignDay
9,94249875.9997519
684,0.0
715,39076007.9685538
2,1, 8,21, 0, 7,30.00,45.00,SummerDesignDay
9,94249875.9997519
684,0.0
715,175783566.489451
2,1, 8,21, 0, 7,45.00,60.00,SummerDesignDay
9,94249875.9997519
684,0.0
715,142110638.89731