Program Version,EnergyPlus, Version 8.5.0-c87e61b44b, YMD=2017.12.19 17:40
1,5,Environment Title[],Latitude[deg],Longitude[deg],Time Zone[],Elevation[m]
2,6,Day of Simulation[],Month[],Day of Month[],DST Indicator[1=yes 0=no],Hour[],StartMinute[],EndMinute[],DayType
3,3,Cumulative Day of Simulation[],Month[],Day of Month[],DST Indicator[1=yes 0=no],DayType  ! When Daily Meters Requested
4,2,Cumulative Days of Simulation[],Month[]  ! When Monthly Meters Requested
5,1,Cumulative Days of Simulation[] ! When Run Period Meters Requested
9,1,Electricity:Facility [J] !TimeStep
545,1,DistrictCooling:Facility [J] !TimeStep
514,1,DistrictHeating:Facility [J] !TimeStep
End of Data Dictionary
1,RUN PERIOD 1,  44.92,   9.73,   1.00, 134.00
2,1, 1, 1, 0, 1, 0.00,15.00,Sunday
9,4195896.12598403
514,29228571.7975403
545,0.0
2,1, 1, 1, 0, 1,15.00,30.00,Sunday
9,4195896.12598403
514,30704485.3406285
545,0.0
2,1, 1, 1, 0, 1,30.00,45.00,Sunday
9,4195896.12598403
514,32196441.443953
545,0.0
2,1, 1, 1, 0, 1,45.00,60.00,Sunday
9,4195896.12598403
514,33740250.2736338
545,0.0
2,1, 1, 1, 0, 2, 0.00,15.00,Sunday
9,4195896.12598403
514,33831076.2429896
545,0.0
2,1, 1, 1, 0, 2,15.00,30.00,Sunday
9,4195896.12598403
514,33903392.3240721
545,0.0
2,1, 1, 1, 0, 2,30.00,45.00,Sunday
9,4195896.12598403
514,33959124.8355889
545,0.0
2,1, 1, 1, 0, 2,45.00,60.00,Sunday
9,4195896.12598403
514,34003336.8896771
545,0.0
2,1, 1, 1, 0, 3, 0.00,15.00,Sunday
9,4195896.12598403
514,34133491.6824671
545,0.0
2,1, 1, 1, 0, 3,15.00,30.00,Sunday
9,4195896.12598403
514,34265198.9641602
545,0.0
2,1, 1, 1, 0, 3,30.00,45.00,Sunday
9,4195896.12598403
514,34397149.6585868
545,0.0
2,1, 1, 1, 0, 3,45.00,60.00,Sunday
9,4195896.12598403
514,34529145.8595968
545,0.0
2,1, 1, 1, 0, 4, 0.00,15.00,Sunday
9,4195896.12598403
514,34645875.8673695
545,0.0
2,1, 1, 1, 0, 4,15.00,30.00,Sunday
9,4195896.12598403
514,34761815.9756394
545,0.0
2,1, 1, 1, 0, 4,30.00,45.00,Sunday
9,4195896.12598403
514,34876890.3619363
545,0.0
2,1, 1, 1, 0, 4,45.00,60.00,Sunday
9,4195896.12598403
514,34991369.3148411
545,0.0
2,1, 1, 1, 0, 5, 0.00,15.00,Sunday
9,4195896.12598403
514,35004423.5410324
545,0.0
2,1, 1, 1, 0, 5,15.00,30.00,Sunday
9,4195896.12598403
514,35011585.6728547
545,0.0
2,1, 1, 1, 0, 5,30.00,45.00,Sunday
9,4195896.12598403
514,35012532.6641866
545,0.0
2,1, 1, 1, 0, 5,45.00,60.00,Sunday
9,4195896.12598403
514,35008804.9883714
545,0.0
2,1, 1, 1, 0, 6, 0.00,15.00,Sunday
9,4195896.12598403
514,35080472.1631515
545,0.0
2,1, 1, 1, 0, 6,15.00,30.00,Sunday
9,4195896.12598403
514,35153355.9436405
545,0.0
2,1, 1, 1, 0, 6,30.00,45.00,Sunday
9,4195896.12598403
514,35230079.6948322
545,0.0
2,1, 1, 1, 0, 6,45.00,60.00,Sunday
9,4195896.12598403
514,35307745.6782991
545,0.0
2,1, 1, 1, 0, 7, 0.00,15.00,Sunday
9,4195896.12598403
514,35342496.4495799
545,0.0
2,1, 1, 1, 0, 7,15.00,30.00,Sunday
9,4195896.12598403
514,35370461.1353072
545,0.0
2,1, 1, 1, 0, 7,30.00,45.00,Sunday
9,4195896.12598403
514,35397602.9155913
545,0.0
2,1, 1, 1, 0, 7,45.00,60.00,Sunday
9,4195896.12598403
514,35423595.4205907
545,0.0
2,1, 1, 1, 0, 8, 0.00,15.00,Sunday
9,4195896.12598403
514,35351457.4151229
545,0.0
2,1, 1, 1, 0, 8,15.00,30.00,Sunday
9,4195896.12598403
514,35277646.2810868
545,0.0
2,1, 1, 1, 0, 8,30.00,45.00,Sunday
9,4195896.12598403
514,35200018.9112512
545,0.0
2,1, 1, 1, 0, 8,45.00,60.00,Sunday
9,4195896.12598403
514,35119682.7821755
545,0.0
2,1, 1, 1, 0, 9, 0.00,15.00,Sunday
9,4195896.12598403
514,34608338.1943133
545,0.0
2,1, 1, 1, 0, 9,15.00,30.00,Sunday
9,4195896.12598403
514,34166547.7978288
545,0.0
2,1, 1, 1, 0, 9,30.00,45.00,Sunday
9,4195896.12598403
514,33601549.0949115
545,0.0
2,1, 1, 1, 0, 9,45.00,60.00,Sunday
9,4195896.12598403
514,32977521.198439
545,0.0
2,1, 1, 1, 0,10, 0.00,15.00,Sunday
9,4195896.12598403
514,32530547.913926
545,0.0
2,1, 1, 1, 0,10,15.00,30.00,Sunday
9,4195896.12598403
514,32074581.3111293
545,0.0
2,1, 1, 1, 0,10,30.00,45.00,Sunday
9,4195896.12598403
514,31650498.1020788
545,0.0
2,1, 1, 1, 0,10,45.00,60.00,Sunday
9,4195896.12598403
514,31236241.4518193
545,0.0
2,1, 1, 1, 0,11, 0.00,15.00,Sunday
9,4195896.12598403
514,30879792.6032933
545,0.0
2,1, 1, 1, 0,11,15.00,30.00,Sunday
9,4195896.12598403
514,30518551.278893
545,0.0
2,1, 1, 1, 0,11,30.00,45.00,Sunday
9,4195896.12598403
514,30197814.9998926
545,0.0
2,1, 1, 1, 0,11,45.00,60.00,Sunday
9,4195896.12598403
514,29894140.0367771
545,0.0
2,1, 1, 1, 0,12, 0.00,15.00,Sunday
9,4195896.12598403
514,29552507.7991474
545,0.0
2,1, 1, 1, 0,12,15.00,30.00,Sunday
9,4195896.12598403
514,29020235.1223909
545,0.0
2,1, 1, 1, 0,12,30.00,45.00,Sunday
9,4195896.12598403
514,28612601.3358526
545,0.0
2,1, 1, 1, 0,12,45.00,60.00,Sunday
9,4195896.12598403
514,28282508.372494
545,0.0
2,1, 1, 1, 0,13, 0.00,15.00,Sunday
9,4195896.12598403
514,28198391.7233901
545,0.0
2,1, 1, 1, 0,13,15.00,30.00,Sunday
9,4195896.12598403
514,28131111.6149286
545,0.0
2,1, 1, 1, 0,13,30.00,45.00,Sunday
9,4195896.12598403
514,28147615.9270292
545,0.0
2,1, 1, 1, 0,13,45.00,60.00,Sunday
9,4195896.12598403
514,28210633.0461221
545,0.0
2,1, 1, 1, 0,14, 0.00,15.00,Sunday
9,4195896.12598403
514,27890251.1568993
545,0.0
2,1, 1, 1, 0,14,15.00,30.00,Sunday
9,4195896.12598403
514,27793297.3190891
545,0.0
2,1, 1, 1, 0,14,30.00,45.00,Sunday
9,4195896.12598403
514,27673560.9639961
545,0.0
2,1, 1, 1, 0,14,45.00,60.00,Sunday
9,4195896.12598403
514,27612052.9862042
545,0.0
2,1, 1, 1, 0,15, 0.00,15.00,Sunday
9,4195896.12598403
514,27416199.5535363
545,0.0
2,1, 1, 1, 0,15,15.00,30.00,Sunday
9,4195896.12598403
514,27181684.7734254
545,0.0
2,1, 1, 1, 0,15,30.00,45.00,Sunday
9,4195896.12598403
514,26990634.5021339
545,0.0
2,1, 1, 1, 0,15,45.00,60.00,Sunday
9,4195896.12598403
514,26794370.7815404
545,0.0
2,1, 1, 1, 0,16, 0.00,15.00,Sunday
9,4195896.12598403
514,26420648.7199796
545,0.0
2,1, 1, 1, 0,16,15.00,30.00,Sunday
9,4195896.12598403
514,26012148.4269462
545,0.0
2,1, 1, 1, 0,16,30.00,45.00,Sunday
9,4195896.12598403
514,25601578.6852148
545,0.0
2,1, 1, 1, 0,16,45.00,60.00,Sunday
9,4195896.12598403
514,25193871.3257057
545,0.0
2,1, 1, 1, 0,17, 0.00,15.00,Sunday
9,4195896.12598403
514,25356275.103319
545,0.0
2,1, 1, 1, 0,17,15.00,30.00,Sunday
9,4195896.12598403
514,25544877.3230957
545,0.0
2,1, 1, 1, 0,17,30.00,45.00,Sunday
9,4195896.12598403
514,25723374.8393071
545,0.0
2,1, 1, 1, 0,17,45.00,60.00,Sunday
9,4195896.12598403
514,25789052.6998697
545,0.0
2,1, 1, 1, 0,18, 0.00,15.00,Sunday
9,4195896.12598403
514,25831843.1928938
545,0.0
2,1, 1, 1, 0,18,15.00,30.00,Sunday
9,4195896.12598403
514,25879113.8016311
545,0.0
2,1, 1, 1, 0,18,30.00,45.00,Sunday
9,4195896.12598403
514,25900636.0293344
545,0.0
2,1, 1, 1, 0,18,45.00,60.00,Sunday
9,4195896.12598403
514,25889661.9621438
545,0.0
2,1, 1, 1, 0,19, 0.00,15.00,Sunday
9,4195896.12598403
514,25950234.0838916
545,0.0
2,1, 1, 1, 0,19,15.00,30.00,Sunday
9,4195896.12598403
514,25992115.6383193
545,0.0
2,1, 1, 1, 0,19,30.00,45.00,Sunday
9,4195896.12598403
514,26014038.8294673
545,0.0
2,1, 1, 1, 0,19,45.00,60.00,Sunday
9,4195896.12598403
514,26019206.8924018
545,0.0
2,1, 1, 1, 0,20, 0.00,15.00,Sunday
9,4195896.12598403
514,26060812.6214784
545,0.0
2,1, 1, 1, 0,20,15.00,30.00,Sunday
9,4195896.12598403
514,26076260.5380592
545,0.0
2,1, 1, 1, 0,20,30.00,45.00,Sunday
9,4195896.12598403
514,26102533.1832281
545,0.0
2,1, 1, 1, 0,20,45.00,60.00,Sunday
9,4195896.12598403
514,26122002.1996856
545,0.0
2,1, 1, 1, 0,21, 0.00,15.00,Sunday
9,4195896.12598403
514,26305181.3131556
545,0.0
2,1, 1, 1, 0,21,15.00,30.00,Sunday
9,4195896.12598403
514,26517349.7207545
545,0.0
2,1, 1, 1, 0,21,30.00,45.00,Sunday
9,4195896.12598403
514,26730748.0465856
545,0.0
2,1, 1, 1, 0,21,45.00,60.00,Sunday
9,4195896.12598403
514,26929968.0873514
545,0.0
2,1, 1, 1, 0,22, 0.00,15.00,Sunday
9,4195896.12598403
514,27099199.826392
545,0.0
2,1, 1, 1, 0,22,15.00,30.00,Sunday
9,4195896.12598403
514,27239029.0937071
545,0.0
2,1, 1, 1, 0,22,30.00,45.00,Sunday
9,4195896.12598403
514,27386257.5157378
545,0.0
2,1, 1, 1, 0,22,45.00,60.00,Sunday
9,4195896.12598403
514,27567595.0234899
545,0.0
2,1, 1, 1, 0,23, 0.00,15.00,Sunday
9,4195896.12598403
514,27616986.32884
545,0.0
2,1, 1, 1, 0,23,15.00,30.00,Sunday
9,4195896.12598403
514,27666266.6498867
545,0.0
2,1, 1, 1, 0,23,30.00,45.00,Sunday
9,4195896.12598403
514,27715278.8362915
545,0.0
2,1, 1, 1, 0,23,45.00,60.00,Sunday
9,4195896.12598403
514,27764297.5869504
545,0.0
2,1, 1, 1, 0,24, 0.00,15.00,Sunday
9,4195896.12598403
514,27777444.9637112
545,0.0
2,1, 1, 1, 0,24,15.00,30.00,Sunday
9,4195896.12598403
514,27790352.0453382
545,0.0
2,1, 1, 1, 0,24,30.00,45.00,Sunday
9,4195896.12598403
514,27803732.8121445
545,0.0
2,1, 1, 1, 0,24,45.00,60.00,Sunday
9,4195896.12598403
514,27817726.3726813
545,0.0
2,2, 1, 2, 0, 1, 0.00,15.00,Monday
9,5422117.43275536
514,26478356.670345
545,0.0
2,2, 1, 2, 0, 1,15.00,30.00,Monday
9,5422117.43275536
514,26359010.1361113
545,0.0
2,2, 1, 2, 0, 1,30.00,45.00,Monday
9,5422117.43275536
514,26233268.895629
545,0.0
2,2, 1, 2, 0, 1,45.00,60.00,Monday
9,5422117.43275536
514,26103143.7343434
545,0.0
2,2, 1, 2, 0, 2, 0.00,15.00,Monday
9,5422117.43275536
514,26217317.4818154
545,0.0
2,2, 1, 2, 0, 2,15.00,30.00,Monday
9,5422117.43275536
514,26342202.279024
545,0.0
2,2, 1, 2, 0, 2,30.00,45.00,Monday
9,5422117.43275536
514,26478330.0949835
545,0.0
2,2, 1, 2, 0, 2,45.00,60.00,Monday
9,5422117.43275536
514,26621668.1309345
545,0.0
2,2, 1, 2, 0, 3, 0.00,15.00,Monday
9,5422117.43275536
514,26565814.9249678
545,0.0
2,2, 1, 2, 0, 3,15.00,30.00,Monday
9,5422117.43275536
514,26500619.5285102
545,0.0
2,2, 1, 2, 0, 3,30.00,45.00,Monday
9,5422117.43275536
514,26425192.4911912
545,0.0
2,2, 1, 2, 0, 3,45.00,60.00,Monday
9,5422117.43275536
514,26342865.2917925
545,0.0
2,2, 1, 2, 0, 4, 0.00,15.00,Monday
9,5422117.43275536
514,26349023.2633991
545,0.0
2,2, 1, 2, 0, 4,15.00,30.00,Monday
9,5422117.43275536
514,26359197.7694201
545,0.0
2,2, 1, 2, 0, 4,30.00,45.00,Monday
9,5422117.43275536
514,26372136.3030608
545,0.0
2,2, 1, 2, 0, 4,45.00,60.00,Monday
9,5422117.43275536
514,26386796.2819053
545,0.0
2,2, 1, 2, 0, 5, 0.00,15.00,Monday
9,5422117.43275536
514,26325324.3326734
545,0.0
2,2, 1, 2, 0, 5,15.00,30.00,Monday
9,5422117.43275536
514,26262022.7407286
545,0.0
2,2, 1, 2, 0, 5,30.00,45.00,Monday
9,5422117.43275536
514,26198733.9190967
545,0.0
2,2, 1, 2, 0, 5,45.00,60.00,Monday
9,5422117.43275536
514,26135319.5510399
545,0.0
2,2, 1, 2, 0, 6, 0.00,15.00,Monday
9,5939349.6384254
514,25389446.7059193
545,0.0
2,2, 1, 2, 0, 6,15.00,30.00,Monday
9,5939349.6384254
514,25154498.4157085
545,0.0
2,2, 1, 2, 0, 6,30.00,45.00,Monday
9,5939349.6384254
514,24912022.8958434
545,0.0
2,2, 1, 2, 0, 6,45.00,60.00,Monday
9,5939349.6384254
514,24664134.5927144
545,0.0
2,2, 1, 2, 0, 7, 0.00,15.00,Monday
9,5939349.6384254
514,155052055.56822
545,0.0
2,2, 1, 2, 0, 7,15.00,30.00,Monday
9,5939349.6384254
514,82966914.1166117
545,0.0
2,2, 1, 2, 0, 7,30.00,45.00,Monday
9,5939349.6384254
514,109278576.43421
545,0.0
2,2, 1, 2, 0, 7,45.00,60.00,Monday
9,5939349.6384254
514,74059831.3220521
545,0.0
2,2, 1, 2, 0, 8, 0.00,15.00,Monday
9,8008278.46110554
514,72876477.3668595
545,0.0
2,2, 1, 2, 0, 8,15.00,30.00,Monday
9,8008278.46110554
514,69836975.1861698
545,0.0
2,2, 1, 2, 0, 8,30.00,45.00,Monday
9,8008278.46110554
514,67357119.9198719
545,0.0
2,2, 1, 2, 0, 8,45.00,60.00,Monday
9,8008278.46110554
514,65293661.118034
545,0.0
2,2, 1, 2, 0, 9, 0.00,15.00,Monday
9,20346171.4630026
514,58022902.7143802
545,0.0
2,2, 1, 2, 0, 9,15.00,30.00,Monday
9,20346171.4630026
514,55887769.782227
545,0.0
2,2, 1, 2, 0, 9,30.00,45.00,Monday
9,20346171.4630026
514,53972392.8020792
545,0.0
2,2, 1, 2, 0, 9,45.00,60.00,Monday
9,20346171.4630026
514,52177798.8178371
545,0.0
2,2, 1, 2, 0,10, 0.00,15.00,Monday
9,20346171.4630026
514,50657853.1751945
545,0.0
2,2, 1, 2, 0,10,15.00,30.00,Monday
9,20346171.4630026
514,49236260.1796292
545,0.0
2,2, 1, 2, 0,10,30.00,45.00,Monday
9,20346171.4630026
514,47914945.4102649
545,0.0
2,2, 1, 2, 0,10,45.00,60.00,Monday
9,20346171.4630026
514,46671434.0953655
545,0.0
2,2, 1, 2, 0,11, 0.00,15.00,Monday
9,20346171.4630026
514,45386093.2278836
545,0.0
2,2, 1, 2, 0,11,15.00,30.00,Monday
9,20346171.4630026
514,44137888.5222956
545,0.0
2,2, 1, 2, 0,11,30.00,45.00,Monday
9,20346171.4630026
514,43050246.137547
545,0.0
2,2, 1, 2, 0,11,45.00,60.00,Monday
9,20346171.4630026
514,42002088.3181838
545,0.0
2,2, 1, 2, 0,12, 0.00,15.00,Monday
9,20346171.4630026
514,40999718.5937885
545,0.0
2,2, 1, 2, 0,12,15.00,30.00,Monday
9,20346171.4630026
514,40028078.9306897
545,0.0
2,2, 1, 2, 0,12,30.00,45.00,Monday
9,20346171.4630026
514,39097751.7118589
545,0.0
2,2, 1, 2, 0,12,45.00,60.00,Monday
9,20346171.4630026
514,38225112.0527194
545,0.0
2,2, 1, 2, 0,13, 0.00,15.00,Monday
9,19119950.1562313
514,37707743.1798
545,0.0
2,2, 1, 2, 0,13,15.00,30.00,Monday
9,19119950.1562313
514,36606821.5269405
545,0.0
2,2, 1, 2, 0,13,30.00,45.00,Monday
9,19119950.1562313
514,35551916.1817596
545,0.0
2,2, 1, 2, 0,13,45.00,60.00,Monday
9,19119950.1562313
514,34529797.5690546
545,0.0
2,2, 1, 2, 0,14, 0.00,15.00,Monday
9,20346171.4630026
514,33303498.8948004
545,0.0
2,2, 1, 2, 0,14,15.00,30.00,Monday
9,20346171.4630026
514,32719311.3286062
545,0.0
2,2, 1, 2, 0,14,30.00,45.00,Monday
9,20346171.4630026
514,32214520.567512
545,0.0
2,2, 1, 2, 0,14,45.00,60.00,Monday
9,20346171.4630026
514,31739154.0145884
545,0.0
2,2, 1, 2, 0,15, 0.00,15.00,Monday
9,20346171.4630026
514,31287540.4578082
545,0.0
2,2, 1, 2, 0,15,15.00,30.00,Monday
9,20346171.4630026
514,30853134.7341621
545,0.0
2,2, 1, 2, 0,15,30.00,45.00,Monday
9,20346171.4630026
514,30474230.1767591
545,0.0
2,2, 1, 2, 0,15,45.00,60.00,Monday
9,20346171.4630026
514,30134118.7765809
545,0.0
2,2, 1, 2, 0,16, 0.00,15.00,Monday
9,20346171.4630026
514,29827930.6655233
545,0.0
2,2, 1, 2, 0,16,15.00,30.00,Monday
9,20346171.4630026
514,29484373.1187839
545,0.0
2,2, 1, 2, 0,16,30.00,45.00,Monday
9,20346171.4630026
514,29158029.416721
545,0.0
2,2, 1, 2, 0,16,45.00,60.00,Monday
9,20346171.4630026
514,28839958.4802086
545,0.0
2,2, 1, 2, 0,17, 0.00,15.00,Monday
9,20346171.4630026
514,28884736.1985634
545,0.0
2,2, 1, 2, 0,17,15.00,30.00,Monday
9,20346171.4630026
514,28962508.5451084
545,0.0
2,2, 1, 2, 0,17,30.00,45.00,Monday
9,20346171.4630026
514,29064145.4189102
545,0.0
2,2, 1, 2, 0,17,45.00,60.00,Monday
9,20346171.4630026
514,29095375.615085
545,0.0
2,2, 1, 2, 0,18, 0.00,15.00,Monday
9,17051021.3335512
514,32199713.7286721
545,0.0
2,2, 1, 2, 0,18,15.00,30.00,Monday
9,17051021.3335512
514,32203570.6770595
545,0.0
2,2, 1, 2, 0,18,30.00,45.00,Monday
9,17051021.3335512
514,32186798.3303537
545,0.0
2,2, 1, 2, 0,18,45.00,60.00,Monday
9,17051021.3335512
514,32157279.6240859
545,0.0
2,2, 1, 2, 0,19, 0.00,15.00,Monday
9,12529649.8973284
514,36442873.184417
545,0.0
2,2, 1, 2, 0,19,15.00,30.00,Monday
9,12529649.8973284
514,36690103.2357801
545,0.0
2,2, 1, 2, 0,19,30.00,45.00,Monday
9,12529649.8973284
514,36941919.4457992
545,0.0
2,2, 1, 2, 0,19,45.00,60.00,Monday
9,12529649.8973284
514,37229437.4948008
545,0.0
2,2, 1, 2, 0,20, 0.00,15.00,Monday
9,12529649.8973284
514,37163550.3802349
545,0.0
2,2, 1, 2, 0,20,15.00,30.00,Monday
9,12529649.8973284
514,37094477.2339408
545,0.0
2,2, 1, 2, 0,20,30.00,45.00,Monday
9,12529649.8973284
514,37025657.8452718
545,0.0
2,2, 1, 2, 0,20,45.00,60.00,Monday
9,12529649.8973284
514,36958685.1510327
545,0.0
2,2, 1, 2, 0,21, 0.00,15.00,Monday
9,9234499.76787687
514,33197804.1100988
545,0.0
2,2, 1, 2, 0,21,15.00,30.00,Monday
9,9234499.76787687
514,33451079.2470382
545,0.0
2,2, 1, 2, 0,21,30.00,45.00,Monday
9,9234499.76787687
514,33647578.5758255
545,0.0
2,2, 1, 2, 0,21,45.00,60.00,Monday
9,9234499.76787687
514,33804786.9572224
545,0.0
2,2, 1, 2, 0,22, 0.00,15.00,Monday
9,9234499.76787687
514,33882298.8646772
545,0.0
2,2, 1, 2, 0,22,15.00,30.00,Monday
9,9234499.76787687
514,33932481.7852539
545,0.0
2,2, 1, 2, 0,22,30.00,45.00,Monday
9,9234499.76787687
514,33989496.8652259
545,0.0
2,2, 1, 2, 0,22,45.00,60.00,Monday
9,9234499.76787687
514,34044262.489785
545,0.0
2,2, 1, 2, 0,23, 0.00,15.00,Monday
9,5939349.6384254
514,0.0
545,0.0
2,2, 1, 2, 0,23,15.00,30.00,Monday
9,5939349.6384254
514,1423027.6949798
545,0.0
2,2, 1, 2, 0,23,30.00,45.00,Monday
9,5939349.6384254
514,2602883.15235101
545,0.0
2,2, 1, 2, 0,23,45.00,60.00,Monday
9,5939349.6384254
514,3341768.21544103
545,0.0
2,2, 1, 2, 0,24, 0.00,15.00,Monday
9,5422117.43275536
514,4720416.20777685
545,0.0
2,2, 1, 2, 0,24,15.00,30.00,Monday
9,5422117.43275536
514,5235647.98092746
545,0.0
2,2, 1, 2, 0,24,30.00,45.00,Monday
9,5422117.43275536
514,5600712.04180803
545,0.0
2,2, 1, 2, 0,24,45.00,60.00,Monday
9,5422117.43275536
514,5912809.52286891
545,0.0
2,3, 1, 3, 0, 1, 0.00,15.00,Tuesday
9,5422117.43275536
514,6266369.45410373
545,0.0
2,3, 1, 3, 0, 1,15.00,30.00,Tuesday
9,5422117.43275536
514,6540918.52464765
545,0.0
2,3, 1, 3, 0, 1,30.00,45.00,Tuesday
9,5422117.43275536
514,6797448.4699241
545,0.0
2,3, 1, 3, 0, 1,45.00,60.00,Tuesday
9,5422117.43275536
514,7048571.62089974
545,0.0
2,3, 1, 3, 0, 2, 0.00,15.00,Tuesday
9,5422117.43275536
514,8745607.03178635
545,0.0
2,3, 1, 3, 0, 2,15.00,30.00,Tuesday
9,5422117.43275536
514,8496796.74265617
545,0.0
2,3, 1, 3, 0, 2,30.00,45.00,Tuesday
9,5422117.43275536
514,9075714.8118598
545,0.0
2,3, 1, 3, 0, 2,45.00,60.00,Tuesday
9,5422117.43275536
514,9449160.8001734
545,0.0
2,3, 1, 3, 0, 3, 0.00,15.00,Tuesday
9,5422117.43275536
514,9771913.45787457
545,0.0
2,3, 1, 3, 0, 3,15.00,30.00,Tuesday
9,5422117.43275536
514,10059854.2509161
545,0.0
2,3, 1, 3, 0, 3,30.00,45.00,Tuesday
9,5422117.43275536
514,10330049.5382964
545,0.0
2,3, 1, 3, 0, 3,45.00,60.00,Tuesday
9,5422117.43275536
514,10587760.2897898
545,0.0
2,3, 1, 3, 0, 4, 0.00,15.00,Tuesday
9,5422117.43275536
514,10691172.9506639
545,0.0
2,3, 1, 3, 0, 4,15.00,30.00,Tuesday
9,5422117.43275536
514,10785447.6495598
545,0.0
2,3, 1, 3, 0, 4,30.00,45.00,Tuesday
9,5422117.43275536
514,10874163.0890733
545,0.0
2,3, 1, 3, 0, 4,45.00,60.00,Tuesday
9,5422117.43275536
514,10946451.4357772
545,0.0
2,3, 1, 3, 0, 5, 0.00,15.00,Tuesday
9,5422117.43275536
514,11206559.1026691
545,0.0
2,3, 1, 3, 0, 5,15.00,30.00,Tuesday
9,5422117.43275536
514,11477274.4543338
545,0.0
2,3, 1, 3, 0, 5,30.00,45.00,Tuesday
9,5422117.43275536
514,11934682.6676904
545,0.0
2,3, 1, 3, 0, 5,45.00,60.00,Tuesday
9,5422117.43275536
514,12176488.6011766
545,0.0
2,3, 1, 3, 0, 6, 0.00,15.00,Tuesday
9,5939349.6384254
514,11977671.5591224
545,0.0
2,3, 1, 3, 0, 6,15.00,30.00,Tuesday
9,5939349.6384254
514,12153568.4151421
545,0.0
2,3, 1, 3, 0, 6,30.00,45.00,Tuesday
9,5939349.6384254
514,12311527.1318191
545,0.0
2,3, 1, 3, 0, 6,45.00,60.00,Tuesday
9,5939349.6384254
514,12455704.7947454
545,0.0
2,3, 1, 3, 0, 7, 0.00,15.00,Tuesday
9,5939349.6384254
514,128296330.898362
545,0.0
2,3, 1, 3, 0, 7,15.00,30.00,Tuesday
9,5939349.6384254
514,62020162.6323329
545,0.0
2,3, 1, 3, 0, 7,30.00,45.00,Tuesday
9,5939349.6384254
514,94980069.4867473
545,0.0
2,3, 1, 3, 0, 7,45.00,60.00,Tuesday
9,5939349.6384254
514,57596268.3587843
545,0.0
2,3, 1, 3, 0, 8, 0.00,15.00,Tuesday
9,8008278.46110554
514,57491397.3277078
545,0.0
2,3, 1, 3, 0, 8,15.00,30.00,Tuesday
9,8008278.46110554
514,55227958.0972364
545,0.0
2,3, 1, 3, 0, 8,30.00,45.00,Tuesday
9,8008278.46110554
514,53406102.1068964
545,0.0
2,3, 1, 3, 0, 8,45.00,60.00,Tuesday
9,8008278.46110554
514,51919310.3557863
545,0.0
2,3, 1, 3, 0, 9, 0.00,15.00,Tuesday
9,20346171.4630026
514,44317788.8725603
545,0.0
2,3, 1, 3, 0, 9,15.00,30.00,Tuesday
9,20346171.4630026
514,43034289.032523
545,0.0
2,3, 1, 3, 0, 9,30.00,45.00,Tuesday
9,20346171.4630026
514,41947936.7559238
545,0.0
2,3, 1, 3, 0, 9,45.00,60.00,Tuesday
9,20346171.4630026
514,40971043.6210246
545,0.0
2,3, 1, 3, 0,10, 0.00,15.00,Tuesday
9,20346171.4630026
514,39973608.2868837
545,0.0
2,3, 1, 3, 0,10,15.00,30.00,Tuesday
9,20346171.4630026
514,39046458.6635205
545,0.0
2,3, 1, 3, 0,10,30.00,45.00,Tuesday
9,20346171.4630026
514,38183148.9183822
545,0.0
2,3, 1, 3, 0,10,45.00,60.00,Tuesday
9,20346171.4630026
514,37370364.2268684
545,0.0
2,3, 1, 3, 0,11, 0.00,15.00,Tuesday
9,20346171.4630026
514,36469246.9532417
545,0.0
2,3, 1, 3, 0,11,15.00,30.00,Tuesday
9,20346171.4630026
514,35606796.874742
545,0.0
2,3, 1, 3, 0,11,30.00,45.00,Tuesday
9,20346171.4630026
514,34814709.1771995
545,0.0
2,3, 1, 3, 0,11,45.00,60.00,Tuesday
9,20346171.4630026
514,34069899.0665753
545,0.0
2,3, 1, 3, 0,12, 0.00,15.00,Tuesday
9,20346171.4630026
514,33017024.2973068
545,0.0
2,3, 1, 3, 0,12,15.00,30.00,Tuesday
9,20346171.4630026
514,31981264.1454132
545,0.0
2,3, 1, 3, 0,12,30.00,45.00,Tuesday
9,20346171.4630026
514,30997457.7877229
545,0.0
2,3, 1, 3, 0,12,45.00,60.00,Tuesday
9,20346171.4630026
514,30048100.9682478
545,0.0
2,3, 1, 3, 0,13, 0.00,15.00,Tuesday
9,19119950.1562313
514,29575230.3430206
545,0.0
2,3, 1, 3, 0,13,15.00,30.00,Tuesday
9,19119950.1562313
514,28468787.6204742
545,0.0
2,3, 1, 3, 0,13,30.00,45.00,Tuesday
9,19119950.1562313
514,27398266.1025827
545,0.0
2,3, 1, 3, 0,13,45.00,60.00,Tuesday
9,19119950.1562313
514,26355029.4363764
545,0.0
2,3, 1, 3, 0,14, 0.00,15.00,Tuesday
9,20346171.4630026
514,25878764.0779794
545,0.0
2,3, 1, 3, 0,14,15.00,30.00,Tuesday
9,20346171.4630026
514,25604673.1986737
545,0.0
2,3, 1, 3, 0,14,30.00,45.00,Tuesday
9,20346171.4630026
514,25388146.1212979
545,0.0
2,3, 1, 3, 0,14,45.00,60.00,Tuesday
9,20346171.4630026
514,25204499.1624756
545,0.0
2,3, 1, 3, 0,15, 0.00,15.00,Tuesday
9,20346171.4630026
514,25080561.7022716
545,0.0
2,3, 1, 3, 0,15,15.00,30.00,Tuesday
9,20346171.4630026
514,24967528.1241866
545,0.0
2,3, 1, 3, 0,15,30.00,45.00,Tuesday
9,20346171.4630026
514,24886339.5491943
545,0.0
2,3, 1, 3, 0,15,45.00,60.00,Tuesday
9,20346171.4630026
514,24829187.1242785
545,0.0
2,3, 1, 3, 0,16, 0.00,15.00,Tuesday
9,20346171.4630026
514,24953448.5329545
545,0.0
2,3, 1, 3, 0,16,15.00,30.00,Tuesday
9,20346171.4630026
514,25098097.1025203
545,0.0
2,3, 1, 3, 0,16,30.00,45.00,Tuesday
9,20346171.4630026
514,25259784.4005281
545,0.0
2,3, 1, 3, 0,16,45.00,60.00,Tuesday
9,20346171.4630026
514,25435185.1747747
545,0.0
2,3, 1, 3, 0,17, 0.00,15.00,Tuesday
9,20346171.4630026
514,25688559.2004072
545,0.0
2,3, 1, 3, 0,17,15.00,30.00,Tuesday
9,20346171.4630026
514,25950541.6707813
545,0.0
2,3, 1, 3, 0,17,30.00,45.00,Tuesday
9,20346171.4630026
514,26176877.1282852
545,0.0
2,3, 1, 3, 0,17,45.00,60.00,Tuesday
9,20346171.4630026
514,26422727.7643173
545,0.0
2,3, 1, 3, 0,18, 0.00,15.00,Tuesday
9,17051021.3335512
514,28691954.1872178
545,0.0
2,3, 1, 3, 0,18,15.00,30.00,Tuesday
9,17051021.3335512
514,30585578.8339783
545,0.0
2,3, 1, 3, 0,18,30.00,45.00,Tuesday
9,17051021.3335512
514,30672894.4074277
545,0.0
2,3, 1, 3, 0,18,45.00,60.00,Tuesday
9,17051021.3335512
514,31400618.7551893
545,0.0
2,3, 1, 3, 0,19, 0.00,15.00,Tuesday
9,12529649.8973284
514,36045115.3342882
545,0.0
2,3, 1, 3, 0,19,15.00,30.00,Tuesday
9,12529649.8973284
514,36644652.4300217
545,0.0
2,3, 1, 3, 0,19,30.00,45.00,Tuesday
9,12529649.8973284
514,37226586.2149427
545,0.0
2,3, 1, 3, 0,19,45.00,60.00,Tuesday
9,12529649.8973284
514,37802917.8206733
545,0.0
2,3, 1, 3, 0,20, 0.00,15.00,Tuesday
9,12529649.8973284
514,38328798.7922034
545,0.0
2,3, 1, 3, 0,20,15.00,30.00,Tuesday
9,12529649.8973284
514,38858798.6836312
545,0.0
2,3, 1, 3, 0,20,30.00,45.00,Tuesday
9,12529649.8973284
514,39393770.4994337
545,0.0
2,3, 1, 3, 0,20,45.00,60.00,Tuesday
9,12529649.8973284
514,39933304.6260633
545,0.0
2,3, 1, 3, 0,21, 0.00,15.00,Tuesday
9,9234499.76787687
514,35168867.7189729
545,0.0
2,3, 1, 3, 0,21,15.00,30.00,Tuesday
9,9234499.76787687
514,35879611.9862237
545,0.0
2,3, 1, 3, 0,21,30.00,45.00,Tuesday
9,9234499.76787687
514,36587038.6349423
545,0.0
2,3, 1, 3, 0,21,45.00,60.00,Tuesday
9,9234499.76787687
514,37234195.6775423
545,0.0
2,3, 1, 3, 0,22, 0.00,15.00,Tuesday
9,9234499.76787687
514,37795297.5439813
545,0.0
2,3, 1, 3, 0,22,15.00,30.00,Tuesday
9,9234499.76787687
514,38402024.6224899
545,0.0
2,3, 1, 3, 0,22,30.00,45.00,Tuesday
9,9234499.76787687
514,38986022.7388154
545,0.0
2,3, 1, 3, 0,22,45.00,60.00,Tuesday
9,9234499.76787687
514,39567661.0926073
545,0.0
2,3, 1, 3, 0,23, 0.00,15.00,Tuesday
9,5939349.6384254
514,0.0
545,0.0
2,3, 1, 3, 0,23,15.00,30.00,Tuesday
9,5939349.6384254
514,2183448.35519085
545,0.0
2,3, 1, 3, 0,23,30.00,45.00,Tuesday
9,5939349.6384254
514,4842601.08493296
545,0.0
2,3, 1, 3, 0,23,45.00,60.00,Tuesday
9,5939349.6384254
514,6499626.06727184
545,0.0
2,3, 1, 3, 0,24, 0.00,15.00,Tuesday
9,5422117.43275536
514,7242913.41486594
545,0.0
2,3, 1, 3, 0,24,15.00,30.00,Tuesday
9,5422117.43275536
514,7519561.92190622
545,0.0
2,3, 1, 3, 0,24,30.00,45.00,Tuesday
9,5422117.43275536
514,7726173.84995892
545,0.0
2,3, 1, 3, 0,24,45.00,60.00,Tuesday
9,5422117.43275536
514,7937154.15355132
545,0.0
2,4, 1, 4, 0, 1, 0.00,15.00,Wednesday
9,5422117.43275536
514,8139270.85006791
545,0.0
2,4, 1, 4, 0, 1,15.00,30.00,Wednesday
9,5422117.43275536
514,9181640.49144173
545,0.0
2,4, 1, 4, 0, 1,30.00,45.00,Wednesday
9,5422117.43275536
514,9571377.65078841
545,0.0
2,4, 1, 4, 0, 1,45.00,60.00,Wednesday
9,5422117.43275536
514,9446728.67473621
545,0.0
2,4, 1, 4, 0, 2, 0.00,15.00,Wednesday
9,5422117.43275536
514,10021983.5765158
545,0.0
2,4, 1, 4, 0, 2,15.00,30.00,Wednesday
9,5422117.43275536
514,10397585.9288615
545,0.0
2,4, 1, 4, 0, 2,30.00,45.00,Wednesday
9,5422117.43275536
514,10734954.8071779
545,0.0
2,4, 1, 4, 0, 2,45.00,60.00,Wednesday
9,5422117.43275536
514,11039451.2006271
545,0.0
2,4, 1, 4, 0, 3, 0.00,15.00,Wednesday
9,5422117.43275536
514,11372603.8417297
545,0.0
2,4, 1, 4, 0, 3,15.00,30.00,Wednesday
9,5422117.43275536
514,11676045.9215716
545,0.0
2,4, 1, 4, 0, 3,30.00,45.00,Wednesday
9,5422117.43275536
514,11975370.1227694
545,0.0
2,4, 1, 4, 0, 3,45.00,60.00,Wednesday
9,5422117.43275536
514,12263051.5429474
545,0.0
2,4, 1, 4, 0, 4, 0.00,15.00,Wednesday
9,5422117.43275536
514,12772120.5732958
545,0.0
2,4, 1, 4, 0, 4,15.00,30.00,Wednesday
9,5422117.43275536
514,13283165.105707
545,0.0
2,4, 1, 4, 0, 4,30.00,45.00,Wednesday
9,5422117.43275536
514,13850987.3634027
545,0.0
2,4, 1, 4, 0, 4,45.00,60.00,Wednesday
9,5422117.43275536
514,14596624.5430696
545,0.0
2,4, 1, 4, 0, 5, 0.00,15.00,Wednesday
9,5422117.43275536
514,14924183.2289057
545,0.0
2,4, 1, 4, 0, 5,15.00,30.00,Wednesday
9,5422117.43275536
514,15350823.704781
545,0.0
2,4, 1, 4, 0, 5,30.00,45.00,Wednesday
9,5422117.43275536
514,15726459.8614342
545,0.0
2,4, 1, 4, 0, 5,45.00,60.00,Wednesday
9,5422117.43275536
514,16089406.0974395
545,0.0
2,4, 1, 4, 0, 6, 0.00,15.00,Wednesday
9,5939349.6384254
514,16167816.6314474
545,0.0
2,4, 1, 4, 0, 6,15.00,30.00,Wednesday
9,5939349.6384254
514,16650249.2682341
545,0.0
2,4, 1, 4, 0, 6,30.00,45.00,Wednesday
9,5939349.6384254
514,17124956.3504893
545,0.0
2,4, 1, 4, 0, 6,45.00,60.00,Wednesday
9,5939349.6384254
514,17591591.3308143
545,0.0
2,4, 1, 4, 0, 7, 0.00,15.00,Wednesday
9,5939349.6384254
514,137780674.906479
545,0.0
2,4, 1, 4, 0, 7,15.00,30.00,Wednesday
9,5939349.6384254
514,84529431.1668015
545,0.0
2,4, 1, 4, 0, 7,30.00,45.00,Wednesday
9,5939349.6384254
514,102765751.534867
545,0.0
2,4, 1, 4, 0, 7,45.00,60.00,Wednesday
9,5939349.6384254
514,65006556.8733065
545,0.0
2,4, 1, 4, 0, 8, 0.00,15.00,Wednesday
9,8008278.46110554
514,65705899.6889097
545,0.0
2,4, 1, 4, 0, 8,15.00,30.00,Wednesday
9,8008278.46110554
514,63301730.7574652
545,0.0
2,4, 1, 4, 0, 8,30.00,45.00,Wednesday
9,8008278.46110554
514,61390192.410691
545,0.0
2,4, 1, 4, 0, 8,45.00,60.00,Wednesday
9,8008278.46110554
514,59828627.3713917
545,0.0
2,4, 1, 4, 0, 9, 0.00,15.00,Wednesday
9,20346171.4630026
514,54046771.3387728
545,0.0
2,4, 1, 4, 0, 9,15.00,30.00,Wednesday
9,20346171.4630026
514,52481965.6227442
545,0.0
2,4, 1, 4, 0, 9,30.00,45.00,Wednesday
9,20346171.4630026
514,51119662.4357219
545,0.0
2,4, 1, 4, 0, 9,45.00,60.00,Wednesday
9,20346171.4630026
514,49880892.7145666
545,0.0
2,4, 1, 4, 0,10, 0.00,15.00,Wednesday
9,20346171.4630026
514,48578652.2967417
545,0.0
2,4, 1, 4, 0,10,15.00,30.00,Wednesday
9,20346171.4630026
514,47358255.6200619
545,0.0
2,4, 1, 4, 0,10,30.00,45.00,Wednesday
9,20346171.4630026
514,46203938.3500883
545,0.0
2,4, 1, 4, 0,10,45.00,60.00,Wednesday
9,20346171.4630026
514,45098199.4613561
545,0.0
2,4, 1, 4, 0,11, 0.00,15.00,Wednesday
9,20346171.4630026
514,44290582.6805483
545,0.0
2,4, 1, 4, 0,11,15.00,30.00,Wednesday
9,20346171.4630026
514,43522023.2944918
545,0.0
2,4, 1, 4, 0,11,30.00,45.00,Wednesday
9,20346171.4630026
514,42819778.4406658
545,0.0
2,4, 1, 4, 0,11,45.00,60.00,Wednesday
9,20346171.4630026
514,42166101.5457411
545,0.0
2,4, 1, 4, 0,12, 0.00,15.00,Wednesday
9,20346171.4630026
514,41315893.2360739
545,0.0
2,4, 1, 4, 0,12,15.00,30.00,Wednesday
9,20346171.4630026
514,40483788.5466864
545,0.0
2,4, 1, 4, 0,12,30.00,45.00,Wednesday