Program Version,EnergyPlus, Version 8.5.0-c87e61b44b, YMD=2017.12.18 17:32
1,5,Environment Title[],Latitude[deg],Longitude[deg],Time Zone[],Elevation[m]
2,6,Day of Simulation[],Month[],Day of Month[],DST Indicator[1=yes 0=no],Hour[],StartMinute[],EndMinute[],DayType
3,3,Cumulative Day of Simulation[],Month[],Day of Month[],DST Indicator[1=yes 0=no],DayType  ! When Daily Meters Requested
4,2,Cumulative Days of Simulation[],Month[]  ! When Monthly Meters Requested
5,1,Cumulative Days of Simulation[] ! When Run Period Meters Requested
9,1,Electricity:Facility [J] !TimeStep
545,1,DistrictCooling:Facility [J] !TimeStep
514,1,DistrictHeating:Facility [J] !TimeStep
End of Data Dictionary
1,RUN PERIOD 1,   1.37, 103.98,   8.00,  16.00
2,1, 1, 1, 0, 1, 0.00,15.00,Sunday
9,4195896.12598403
514,0.0
545,690377.282805968
2,1, 1, 1, 0, 1,15.00,30.00,Sunday
9,4195896.12598403
514,0.0
545,632217.681683691
2,1, 1, 1, 0, 1,30.00,45.00,Sunday
9,4195896.12598403
514,0.0
545,565578.502272007
2,1, 1, 1, 0, 1,45.00,60.00,Sunday
9,4195896.12598403
514,0.0
545,497550.128588194
2,1, 1, 1, 0, 2, 0.00,15.00,Sunday
9,4195896.12598403
514,0.0
545,439084.990566926
2,1, 1, 1, 0, 2,15.00,30.00,Sunday
9,4195896.12598403
514,0.0
545,380611.536103915
2,1, 1, 1, 0, 2,30.00,45.00,Sunday
9,4195896.12598403
514,0.0
545,317350.518624723
2,1, 1, 1, 0, 2,45.00,60.00,Sunday
9,4195896.12598403
514,0.0
545,253740.128587947
2,1, 1, 1, 0, 3, 0.00,15.00,Sunday
9,4195896.12598403
514,0.0
545,198217.557644447
2,1, 1, 1, 0, 3,15.00,30.00,Sunday
9,4195896.12598403
514,0.0
545,140559.897559355
2,1, 1, 1, 0, 3,30.00,45.00,Sunday
9,4195896.12598403
514,0.0
545,66452.0506812622
2,1, 1, 1, 0, 3,45.00,60.00,Sunday
9,4195896.12598403
514,0.0
545,0.0
2,1, 1, 1, 0, 4, 0.00,15.00,Sunday
9,4195896.12598403
514,0.0
545,0.0
2,1, 1, 1, 0, 4,15.00,30.00,Sunday
9,4195896.12598403
514,0.0
545,0.0
2,1, 1, 1, 0, 4,30.00,45.00,Sunday
9,4195896.12598403
514,0.0
545,0.0
2,1, 1, 1, 0, 4,45.00,60.00,Sunday
9,4195896.12598403
514,0.0
545,0.0
2,1, 1, 1, 0, 5, 0.00,15.00,Sunday
9,4195896.12598403
514,0.0
545,0.0
2,1, 1, 1, 0, 5,15.00,30.00,Sunday
9,4195896.12598403
514,0.0
545,0.0
2,1, 1, 1, 0, 5,30.00,45.00,Sunday
9,4195896.12598403
514,0.0
545,0.0
2,1, 1, 1, 0, 5,45.00,60.00,Sunday
9,4195896.12598403
514,0.0
545,0.0
2,1, 1, 1, 0, 6, 0.00,15.00,Sunday
9,4195896.12598403
514,0.0
545,0.0
2,1, 1, 1, 0, 6,15.00,30.00,Sunday
9,4195896.12598403
514,0.0
545,0.0
2,1, 1, 1, 0, 6,30.00,45.00,Sunday
9,4195896.12598403
514,0.0
545,0.0
2,1, 1, 1, 0, 6,45.00,60.00,Sunday
9,4195896.12598403
514,0.0
545,0.0
2,1, 1, 1, 0, 7, 0.00,15.00,Sunday
9,4195896.12598403
514,0.0
545,0.0
2,1, 1, 1, 0, 7,15.00,30.00,Sunday
9,4195896.12598403
514,0.0
545,0.0
2,1, 1, 1, 0, 7,30.00,45.00,Sunday
9,4195896.12598403
514,0.0
545,0.0
2,1, 1, 1, 0, 7,45.00,60.00,Sunday
9,4195896.12598403
514,0.0
545,0.0
2,1, 1, 1, 0, 8, 0.00,15.00,Sunday
9,4195896.12598403
514,0.0
545,0.0
2,1, 1, 1, 0, 8,15.00,30.00,Sunday
9,4195896.12598403
514,0.0
545,0.0
2,1, 1, 1, 0, 8,30.00,45.00,Sunday
9,4195896.12598403
514,0.0
545,0.0
2,1, 1, 1, 0, 8,45.00,60.00,Sunday
9,4195896.12598403
514,0.0
545,0.0
2,1, 1, 1, 0, 9, 0.00,15.00,Sunday
9,4195896.12598403
514,0.0
545,0.0
2,1, 1, 1, 0, 9,15.00,30.00,Sunday
9,4195896.12598403
514,0.0
545,0.0
2,1, 1, 1, 0, 9,30.00,45.00,Sunday
9,4195896.12598403
514,0.0
545,0.0
2,1, 1, 1, 0, 9,45.00,60.00,Sunday
9,4195896.12598403
514,0.0
545,0.0
2,1, 1, 1, 0,10, 0.00,15.00,Sunday
9,4195896.12598403
514,0.0
545,6140.99311829829
2,1, 1, 1, 0,10,15.00,30.00,Sunday
9,4195896.12598403
514,0.0
545,1030122.95696
2,1, 1, 1, 0,10,30.00,45.00,Sunday
9,4195896.12598403
514,0.0
545,820770.278103025
2,1, 1, 1, 0,10,45.00,60.00,Sunday
9,4195896.12598403
514,0.0
545,1141732.32785297
2,1, 1, 1, 0,11, 0.00,15.00,Sunday
9,4195896.12598403
514,0.0
545,1356787.96414175
2,1, 1, 1, 0,11,15.00,30.00,Sunday
9,4195896.12598403
514,0.0
545,1564961.68761411
2,1, 1, 1, 0,11,30.00,45.00,Sunday
9,4195896.12598403
514,0.0
545,1754827.68135631
2,1, 1, 1, 0,11,45.00,60.00,Sunday
9,4195896.12598403
514,0.0
545,1929848.91968044
2,1, 1, 1, 0,12, 0.00,15.00,Sunday
9,4195896.12598403
514,0.0
545,3045345.29411032
2,1, 1, 1, 0,12,15.00,30.00,Sunday
9,4195896.12598403
514,0.0
545,3417911.06927908
2,1, 1, 1, 0,12,30.00,45.00,Sunday
9,4195896.12598403
514,0.0
545,3485259.66584532
2,1, 1, 1, 0,12,45.00,60.00,Sunday
9,4195896.12598403
514,0.0
545,3817347.87793959
2,1, 1, 1, 0,13, 0.00,15.00,Sunday
9,4195896.12598403
514,0.0
545,3960660.31878248
2,1, 1, 1, 0,13,15.00,30.00,Sunday
9,4195896.12598403
514,0.0
545,4092091.97199739
2,1, 1, 1, 0,13,30.00,45.00,Sunday
9,4195896.12598403
514,0.0
545,4158447.87755662
2,1, 1, 1, 0,13,45.00,60.00,Sunday
9,4195896.12598403
514,0.0
545,4179211.82038886
2,1, 1, 1, 0,14, 0.00,15.00,Sunday
9,4195896.12598403
514,0.0
545,4193278.16683903
2,1, 1, 1, 0,14,15.00,30.00,Sunday
9,4195896.12598403
514,0.0
545,4191278.67634014
2,1, 1, 1, 0,14,30.00,45.00,Sunday
9,4195896.12598403
514,0.0
545,4144310.68126698
2,1, 1, 1, 0,14,45.00,60.00,Sunday
9,4195896.12598403
514,0.0
545,4067149.86013103
2,1, 1, 1, 0,15, 0.00,15.00,Sunday
9,4195896.12598403
514,0.0
545,4388809.09783625
2,1, 1, 1, 0,15,15.00,30.00,Sunday
9,4195896.12598403
514,0.0
545,4738774.99160106
2,1, 1, 1, 0,15,30.00,45.00,Sunday
9,4195896.12598403
514,0.0
545,5086261.57856374
2,1, 1, 1, 0,15,45.00,60.00,Sunday
9,4195896.12598403
514,0.0
545,5431834.50620806
2,1, 1, 1, 0,16, 0.00,15.00,Sunday
9,4195896.12598403
514,0.0
545,5786220.96476195
2,1, 1, 1, 0,16,15.00,30.00,Sunday
9,4195896.12598403
514,0.0
545,6153085.26187789
2,1, 1, 1, 0,16,30.00,45.00,Sunday
9,4195896.12598403
514,0.0
545,6477589.6671457
2,1, 1, 1, 0,16,45.00,60.00,Sunday
9,4195896.12598403
514,0.0
545,6758827.70648373
2,1, 1, 1, 0,17, 0.00,15.00,Sunday
9,4195896.12598403
514,0.0
545,6995847.12407519
2,1, 1, 1, 0,17,15.00,30.00,Sunday
9,4195896.12598403
514,0.0
545,7198070.44850028
2,1, 1, 1, 0,17,30.00,45.00,Sunday
9,4195896.12598403
514,0.0
545,7328653.11587444
2,1, 1, 1, 0,17,45.00,60.00,Sunday
9,4195896.12598403
514,0.0
545,7405550.82589195
2,1, 1, 1, 0,18, 0.00,15.00,Sunday
9,4195896.12598403
514,0.0
545,7155388.18809427
2,1, 1, 1, 0,18,15.00,30.00,Sunday
9,4195896.12598403
514,0.0
545,6861386.83498325
2,1, 1, 1, 0,18,30.00,45.00,Sunday
9,4195896.12598403
514,0.0
545,6460756.24019786
2,1, 1, 1, 0,18,45.00,60.00,Sunday
9,4195896.12598403
514,0.0
545,5974915.2005118
2,1, 1, 1, 0,19, 0.00,15.00,Sunday
9,4195896.12598403
514,0.0
545,5410250.71048632
2,1, 1, 1, 0,19,15.00,30.00,Sunday
9,4195896.12598403
514,0.0
545,4664808.35802933
2,1, 1, 1, 0,19,30.00,45.00,Sunday
9,4195896.12598403
514,0.0
545,4190508.2057293
2,1, 1, 1, 0,19,45.00,60.00,Sunday
9,4195896.12598403
514,0.0
545,3873112.50396424
2,1, 1, 1, 0,20, 0.00,15.00,Sunday
9,4195896.12598403
514,0.0
545,3361579.45949727
2,1, 1, 1, 0,20,15.00,30.00,Sunday
9,4195896.12598403
514,0.0
545,2955221.54280374
2,1, 1, 1, 0,20,30.00,45.00,Sunday
9,4195896.12598403
514,0.0
545,2631699.23171014
2,1, 1, 1, 0,20,45.00,60.00,Sunday
9,4195896.12598403
514,0.0
545,2340123.28191268
2,1, 1, 1, 0,21, 0.00,15.00,Sunday
9,4195896.12598403
514,0.0
545,2102946.60189701
2,1, 1, 1, 0,21,15.00,30.00,Sunday
9,4195896.12598403
514,0.0
545,1877966.06969268
2,1, 1, 1, 0,21,30.00,45.00,Sunday
9,4195896.12598403
514,0.0
545,1659346.38617835
2,1, 1, 1, 0,21,45.00,60.00,Sunday
9,4195896.12598403
514,0.0
545,1442302.75996631
2,1, 1, 1, 0,22, 0.00,15.00,Sunday
9,4195896.12598403
514,0.0
545,1375271.95306136
2,1, 1, 1, 0,22,15.00,30.00,Sunday
9,4195896.12598403
514,0.0
545,1324770.95880578
2,1, 1, 1, 0,22,30.00,45.00,Sunday
9,4195896.12598403
514,0.0
545,1272645.48993276
2,1, 1, 1, 0,22,45.00,60.00,Sunday
9,4195896.12598403
514,0.0
545,1219030.59472924
2,1, 1, 1, 0,23, 0.00,15.00,Sunday
9,4195896.12598403
514,0.0
545,1156778.79688571
2,1, 1, 1, 0,23,15.00,30.00,Sunday
9,4195896.12598403
514,0.0
545,1092992.16842477
2,1, 1, 1, 0,23,30.00,45.00,Sunday
9,4195896.12598403
514,0.0
545,1027833.67710974
2,1, 1, 1, 0,23,45.00,60.00,Sunday
9,4195896.12598403
514,0.0
545,961595.402819217
2,1, 1, 1, 0,24, 0.00,15.00,Sunday
9,4195896.12598403
514,0.0
545,908818.801806978
2,1, 1, 1, 0,24,15.00,30.00,Sunday
9,4195896.12598403
514,0.0
545,856404.759133728
2,1, 1, 1, 0,24,30.00,45.00,Sunday
9,4195896.12598403
514,0.0
545,805178.275371992
2,1, 1, 1, 0,24,45.00,60.00,Sunday
9,4195896.12598403
514,0.0
545,755758.274344008
2,2, 1, 2, 0, 1, 0.00,15.00,Monday
9,5422117.43275536
514,0.0
545,948706.64345115
2,2, 1, 2, 0, 1,15.00,30.00,Monday
9,5422117.43275536
514,0.0
545,898563.562159941
2,2, 1, 2, 0, 1,30.00,45.00,Monday
9,5422117.43275536
514,0.0
545,841193.542500048
2,2, 1, 2, 0, 1,45.00,60.00,Monday
9,5422117.43275536
514,0.0
545,782461.405340154
2,2, 1, 2, 0, 2, 0.00,15.00,Monday
9,5422117.43275536
514,0.0
545,731252.479796024
2,2, 1, 2, 0, 2,15.00,30.00,Monday
9,5422117.43275536
514,0.0
545,679732.312003005
2,2, 1, 2, 0, 2,30.00,45.00,Monday
9,5422117.43275536
514,0.0
545,628254.170654969
2,2, 1, 2, 0, 2,45.00,60.00,Monday
9,5422117.43275536
514,0.0
545,577194.343015404
2,2, 1, 2, 0, 3, 0.00,15.00,Monday
9,5422117.43275536
514,0.0
545,543237.527975491
2,2, 1, 2, 0, 3,15.00,30.00,Monday
9,5422117.43275536
514,0.0
545,513426.496309437
2,2, 1, 2, 0, 3,30.00,45.00,Monday
9,5422117.43275536
514,0.0
545,460595.247234428
2,2, 1, 2, 0, 3,45.00,60.00,Monday
9,5422117.43275536
514,0.0
545,408758.352601788
2,2, 1, 2, 0, 4, 0.00,15.00,Monday
9,5422117.43275536
514,0.0
545,358074.863536418
2,2, 1, 2, 0, 4,15.00,30.00,Monday
9,5422117.43275536
514,0.0
545,305029.609389124
2,2, 1, 2, 0, 4,30.00,45.00,Monday
9,5422117.43275536
514,0.0
545,250701.801068817
2,2, 1, 2, 0, 4,45.00,60.00,Monday
9,5422117.43275536
514,0.0
545,194496.601905416
2,2, 1, 2, 0, 5, 0.00,15.00,Monday
9,5422117.43275536
514,0.0
545,133513.738007103
2,2, 1, 2, 0, 5,15.00,30.00,Monday
9,5422117.43275536
514,0.0
545,71617.9811292274
2,2, 1, 2, 0, 5,30.00,45.00,Monday
9,5422117.43275536
514,0.0
545,8263.37151811883
2,2, 1, 2, 0, 5,45.00,60.00,Monday
9,5422117.43275536
514,0.0
545,0.0
2,2, 1, 2, 0, 6, 0.00,15.00,Monday
9,5939349.6384254
514,0.0
545,290196.767442755
2,2, 1, 2, 0, 6,15.00,30.00,Monday
9,5939349.6384254
514,0.0
545,345214.965351364
2,2, 1, 2, 0, 6,30.00,45.00,Monday
9,5939349.6384254
514,0.0
545,262295.165928333
2,2, 1, 2, 0, 6,45.00,60.00,Monday
9,5939349.6384254
514,0.0
545,227608.169263973
2,2, 1, 2, 0, 7, 0.00,15.00,Monday
9,5939349.6384254
514,0.0
545,55238231.2772605
2,2, 1, 2, 0, 7,15.00,30.00,Monday
9,5939349.6384254
514,0.0
545,17003596.6162715
2,2, 1, 2, 0, 7,30.00,45.00,Monday
9,5939349.6384254
514,0.0
545,30516309.1631271
2,2, 1, 2, 0, 7,45.00,60.00,Monday
9,5939349.6384254
514,0.0
545,17547949.630636
2,2, 1, 2, 0, 8, 0.00,15.00,Monday
9,8008278.46110554
514,0.0
545,23988926.3282176
2,2, 1, 2, 0, 8,15.00,30.00,Monday
9,8008278.46110554
514,0.0
545,23289660.3012719
2,2, 1, 2, 0, 8,30.00,45.00,Monday
9,8008278.46110554
514,0.0
545,23166189.895561
2,2, 1, 2, 0, 8,45.00,60.00,Monday
9,8008278.46110554
514,0.0
545,23325149.1811423
2,2, 1, 2, 0, 9, 0.00,15.00,Monday
9,20346171.4630026
514,0.0
545,58856390.2650867
2,2, 1, 2, 0, 9,15.00,30.00,Monday
9,20346171.4630026
514,0.0
545,66475260.5009286
2,2, 1, 2, 0, 9,30.00,45.00,Monday
9,20346171.4630026
514,0.0
545,63930175.1907261
2,2, 1, 2, 0, 9,45.00,60.00,Monday
9,20346171.4630026
514,0.0
545,65107935.5813335
2,2, 1, 2, 0,10, 0.00,15.00,Monday
9,20346171.4630026
514,0.0
545,66177627.1749578
2,2, 1, 2, 0,10,15.00,30.00,Monday
9,20346171.4630026
514,0.0
545,67144918.5078199
2,2, 1, 2, 0,10,30.00,45.00,Monday
9,20346171.4630026
514,0.0
545,68036113.6948705
2,2, 1, 2, 0,10,45.00,60.00,Monday
9,20346171.4630026
514,0.0
545,69013189.7024091
2,2, 1, 2, 0,11, 0.00,15.00,Monday
9,20346171.4630026
514,0.0
545,69957977.3313352
2,2, 1, 2, 0,11,15.00,30.00,Monday
9,20346171.4630026
514,0.0
545,70903237.9961803
2,2, 1, 2, 0,11,30.00,45.00,Monday
9,20346171.4630026
514,0.0
545,71739571.7269889
2,2, 1, 2, 0,11,45.00,60.00,Monday
9,20346171.4630026
514,0.0
545,72541486.4849445
2,2, 1, 2, 0,12, 0.00,15.00,Monday
9,20346171.4630026
514,0.0
545,73507930.7973328
2,2, 1, 2, 0,12,15.00,30.00,Monday
9,20346171.4630026
514,0.0
545,74541096.4077569
2,2, 1, 2, 0,12,30.00,45.00,Monday
9,20346171.4630026
514,0.0
545,75537247.5478835
2,2, 1, 2, 0,12,45.00,60.00,Monday
9,20346171.4630026
514,0.0
545,76539809.8312832
2,2, 1, 2, 0,13, 0.00,15.00,Monday
9,19119950.1562313
514,0.0
545,74533640.9204669
2,2, 1, 2, 0,13,15.00,30.00,Monday
9,19119950.1562313
514,0.0
545,75540968.785644
2,2, 1, 2, 0,13,30.00,45.00,Monday
9,19119950.1562313
514,0.0
545,76181063.0811985
2,2, 1, 2, 0,13,45.00,60.00,Monday
9,19119950.1562313
514,0.0
545,76776622.469849
2,2, 1, 2, 0,14, 0.00,15.00,Monday
9,20346171.4630026
514,0.0
545,80366481.8760155
2,2, 1, 2, 0,14,15.00,30.00,Monday
9,20346171.4630026
514,0.0
545,81098159.2444459
2,2, 1, 2, 0,14,30.00,45.00,Monday
9,20346171.4630026
514,0.0
545,81825167.1231017
2,2, 1, 2, 0,14,45.00,60.00,Monday
9,20346171.4630026
514,0.0
545,82607904.0377788
2,2, 1, 2, 0,15, 0.00,15.00,Monday
9,20346171.4630026
514,0.0
545,81913723.5246976
2,2, 1, 2, 0,15,15.00,30.00,Monday
9,20346171.4630026
514,0.0
545,81582720.3932555
2,2, 1, 2, 0,15,30.00,45.00,Monday
9,20346171.4630026
514,0.0
545,81237790.0001458
2,2, 1, 2, 0,15,45.00,60.00,Monday
9,20346171.4630026
514,0.0
545,80854890.7441905
2,2, 1, 2, 0,16, 0.00,15.00,Monday
9,20346171.4630026
514,0.0
545,80539263.7279654
2,2, 1, 2, 0,16,15.00,30.00,Monday
9,20346171.4630026
514,0.0
545,80181836.9046563
2,2, 1, 2, 0,16,30.00,45.00,Monday
9,20346171.4630026
514,0.0
545,79641033.1958784
2,2, 1, 2, 0,16,45.00,60.00,Monday
9,20346171.4630026
514,0.0
545,78967765.0723951
2,2, 1, 2, 0,17, 0.00,15.00,Monday
9,20346171.4630026
514,0.0
545,78111359.6898143
2,2, 1, 2, 0,17,15.00,30.00,Monday
9,20346171.4630026
514,0.0
545,77225545.9233008
2,2, 1, 2, 0,17,30.00,45.00,Monday
9,20346171.4630026
514,0.0
545,76246970.9505802
2,2, 1, 2, 0,17,45.00,60.00,Monday
9,20346171.4630026
514,0.0
545,75175528.7462649
2,2, 1, 2, 0,18, 0.00,15.00,Monday
9,17051021.3335512
514,0.0
545,68368123.8375954
2,2, 1, 2, 0,18,15.00,30.00,Monday
9,17051021.3335512
514,0.0
545,67659723.2080728
2,2, 1, 2, 0,18,30.00,45.00,Monday
9,17051021.3335512
514,0.0
545,66825361.7197623
2,2, 1, 2, 0,18,45.00,60.00,Monday
9,17051021.3335512
514,0.0
545,65696724.1344384
2,2, 1, 2, 0,19, 0.00,15.00,Monday
9,12529649.8973284
514,0.0
545,55935410.5713061
2,2, 1, 2, 0,19,15.00,30.00,Monday
9,12529649.8973284
514,0.0
545,54434556.2075381
2,2, 1, 2, 0,19,30.00,45.00,Monday
9,12529649.8973284
514,0.0
545,53448009.6501325
2,2, 1, 2, 0,19,45.00,60.00,Monday
9,12529649.8973284
514,0.0
545,52567718.1749708
2,2, 1, 2, 0,20, 0.00,15.00,Monday
9,12529649.8973284
514,0.0
545,51298604.7787177
2,2, 1, 2, 0,20,15.00,30.00,Monday
9,12529649.8973284
514,0.0
545,50288860.5214056
2,2, 1, 2, 0,20,30.00,45.00,Monday
9,12529649.8973284
514,0.0
545,49467808.8913391
2,2, 1, 2, 0,20,45.00,60.00,Monday
9,12529649.8973284
514,0.0
545,48710133.7049102
2,2, 1, 2, 0,21, 0.00,15.00,Monday
9,9234499.76787687
514,0.0
545,29741193.89051
2,2, 1, 2, 0,21,15.00,30.00,Monday
9,9234499.76787687
514,0.0
545,28321661.4851823
2,2, 1, 2, 0,21,30.00,45.00,Monday
9,9234499.76787687
514,0.0
545,26820446.0335168
2,2, 1, 2, 0,21,45.00,60.00,Monday
9,9234499.76787687
514,0.0
545,25571545.8777066
2,2, 1, 2, 0,22, 0.00,15.00,Monday
9,9234499.76787687
514,0.0
545,24710428.2784294
2,2, 1, 2, 0,22,15.00,30.00,Monday
9,9234499.76787687
514,0.0
545,24079688.2613015
2,2, 1, 2, 0,22,30.00,45.00,Monday
9,9234499.76787687
514,0.0
545,23585889.0084784
2,2, 1, 2, 0,22,45.00,60.00,Monday
9,9234499.76787687
514,0.0
545,23172961.1631834
2,2, 1, 2, 0,23, 0.00,15.00,Monday
9,5939349.6384254
514,0.0
545,0.0
2,2, 1, 2, 0,23,15.00,30.00,Monday
9,5939349.6384254
514,0.0
545,0.0
2,2, 1, 2, 0,23,30.00,45.00,Monday
9,5939349.6384254
514,0.0
545,0.0
2,2, 1, 2, 0,23,45.00,60.00,Monday
9,5939349.6384254
514,0.0
545,0.0
2,2, 1, 2, 0,24, 0.00,15.00,Monday
9,5422117.43275536
514,0.0
545,0.0
2,2, 1, 2, 0,24,15.00,30.00,Monday
9,5422117.43275536
514,0.0
545,764312.941510587
2,2, 1, 2, 0,24,30.00,45.00,Monday
9,5422117.43275536
514,0.0
545,464938.521933177
2,2, 1, 2, 0,24,45.00,60.00,Monday
9,5422117.43275536
514,0.0
545,481350.250214211
2,3, 1, 3, 0, 1, 0.00,15.00,Tuesday
9,5422117.43275536
514,0.0
545,0.0
2,3, 1, 3, 0, 1,15.00,30.00,Tuesday
9,5422117.43275536
514,0.0
545,0.0
2,3, 1, 3, 0, 1,30.00,45.00,Tuesday
9,5422117.43275536
514,0.0
545,0.0
2,3, 1, 3, 0, 1,45.00,60.00,Tuesday
9,5422117.43275536
514,0.0
545,0.0
2,3, 1, 3, 0, 2, 0.00,15.00,Tuesday
9,5422117.43275536
514,0.0
545,0.0
2,3, 1, 3, 0, 2,15.00,30.00,Tuesday
9,5422117.43275536
514,0.0
545,0.0
2,3, 1, 3, 0, 2,30.00,45.00,Tuesday
9,5422117.43275536
514,0.0
545,0.0
2,3, 1, 3, 0, 2,45.00,60.00,Tuesday
9,5422117.43275536
514,0.0
545,0.0
2,3, 1, 3, 0, 3, 0.00,15.00,Tuesday
9,5422117.43275536
514,0.0
545,0.0
2,3, 1, 3, 0, 3,15.00,30.00,Tuesday
9,5422117.43275536
514,0.0
545,0.0
2,3, 1, 3, 0, 3,30.00,45.00,Tuesday
9,5422117.43275536
514,0.0
545,0.0
2,3, 1, 3, 0, 3,45.00,60.00,Tuesday
9,5422117.43275536
514,0.0
545,0.0
2,3, 1, 3, 0, 4, 0.00,15.00,Tuesday
9,5422117.43275536
514,0.0
545,0.0
2,3, 1, 3, 0, 4,15.00,30.00,Tuesday
9,5422117.43275536
514,0.0
545,0.0
2,3, 1, 3, 0, 4,30.00,45.00,Tuesday
9,5422117.43275536
514,0.0
545,0.0
2,3, 1, 3, 0, 4,45.00,60.00,Tuesday
9,5422117.43275536
514,0.0
545,0.0
2,3, 1, 3, 0, 5, 0.00,15.00,Tuesday
9,5422117.43275536
514,0.0
545,0.0
2,3, 1, 3, 0, 5,15.00,30.00,Tuesday
9,5422117.43275536
514,0.0
545,0.0
2,3, 1, 3, 0, 5,30.00,45.00,Tuesday
9,5422117.43275536
514,0.0
545,0.0
2,3, 1, 3, 0, 5,45.00,60.00,Tuesday
9,5422117.43275536
514,0.0
545,0.0
2,3, 1, 3, 0, 6, 0.00,15.00,Tuesday
9,5939349.6384254
514,0.0
545,0.0
2,3, 1, 3, 0, 6,15.00,30.00,Tuesday
9,5939349.6384254
514,0.0
545,0.0
2,3, 1, 3, 0, 6,30.00,45.00,Tuesday
9,5939349.6384254
514,0.0
545,0.0
2,3, 1, 3, 0, 6,45.00,60.00,Tuesday
9,5939349.6384254
514,0.0
545,0.0
2,3, 1, 3, 0, 7, 0.00,15.00,Tuesday
9,5939349.6384254
514,0.0
545,51244490.4117721
2,3, 1, 3, 0, 7,15.00,30.00,Tuesday
9,5939349.6384254
514,0.0
545,15860524.4652606
2,3, 1, 3, 0, 7,30.00,45.00,Tuesday
9,5939349.6384254
514,0.0
545,28635723.0110844
2,3, 1, 3, 0, 7,45.00,60.00,Tuesday
9,5939349.6384254
514,0.0
545,16821710.6109564
2,3, 1, 3, 0, 8, 0.00,15.00,Tuesday
9,8008278.46110554
514,0.0
545,23841926.6561614
2,3, 1, 3, 0, 8,15.00,30.00,Tuesday
9,8008278.46110554
514,0.0
545,23181421.6539739
2,3, 1, 3, 0, 8,30.00,45.00,Tuesday
9,8008278.46110554
514,0.0
545,23097347.9071015
2,3, 1, 3, 0, 8,45.00,60.00,Tuesday
9,8008278.46110554
514,0.0
545,23346453.8464147
2,3, 1, 3, 0, 9, 0.00,15.00,Tuesday
9,20346171.4630026
514,0.0
545,60943782.1023135
2,3, 1, 3, 0, 9,15.00,30.00,Tuesday
9,20346171.4630026
514,0.0
545,67961520.8091149
2,3, 1, 3, 0, 9,30.00,45.00,Tuesday
9,20346171.4630026
514,0.0
545,67023319.3075144
2,3, 1, 3, 0, 9,45.00,60.00,Tuesday
9,20346171.4630026
514,0.0
545,68928083.6656882
2,3, 1, 3, 0,10, 0.00,15.00,Tuesday
9,20346171.4630026
514,0.0
545,70315132.949882
2,3, 1, 3, 0,10,15.00,30.00,Tuesday
9,20346171.4630026
514,0.0
545,72440488.9823412
2,3, 1, 3, 0,10,30.00,45.00,Tuesday
9,20346171.4630026
514,0.0
545,73505083.8592491
2,3, 1, 3, 0,10,45.00,60.00,Tuesday
9,20346171.4630026
514,0.0
545,74609445.2473325
2,3, 1, 3, 0,11, 0.00,15.00,Tuesday
9,20346171.4630026
514,0.0
545,75777255.7525046
2,3, 1, 3, 0,11,15.00,30.00,Tuesday
9,20346171.4630026
514,0.0
545,76831611.8547045
2,3, 1, 3, 0,11,30.00,45.00,Tuesday
9,20346171.4630026
514,0.0
545,77709604.8038432
2,3, 1, 3, 0,11,45.00,60.00,Tuesday
9,20346171.4630026
514,0.0
545,78591375.6675471
2,3, 1, 3, 0,12, 0.00,15.00,Tuesday
9,20346171.4630026
514,0.0
545,78938633.3595079
2,3, 1, 3, 0,12,15.00,30.00,Tuesday
9,20346171.4630026
514,0.0
545,79350903.9300508
2,3, 1, 3, 0,12,30.00,45.00,Tuesday
9,20346171.4630026
514,0.0
545,79674798.3665702
2,3, 1, 3, 0,12,45.00,60.00,Tuesday
9,20346171.4630026
514,0.0
545,80010102.1605095
2,3, 1, 3, 0,13, 0.00,15.00,Tuesday
9,19119950.1562313
514,0.0
545,77382277.053054
2,3, 1, 3, 0,13,15.00,30.00,Tuesday
9,19119950.1562313
514,0.0
545,77784461.5124692
2,3, 1, 3, 0,13,30.00,45.00,Tuesday
9,19119950.1562313
514,0.0
545,78309452.9580868
2,3, 1, 3, 0,13,45.00,60.00,Tuesday
9,19119950.1562313
514,0.0
545,78721876.9412545
2,3, 1, 3, 0,14, 0.00,15.00,Tuesday
9,20346171.4630026
514,0.0
545,82072675.5537107
2,3, 1, 3, 0,14,15.00,30.00,Tuesday
9,20346171.4630026
514,0.0
545,82449002.600334
2,3, 1, 3, 0,14,30.00,45.00,Tuesday
9,20346171.4630026
514,0.0
545,82863628.1922385
2,3, 1, 3, 0,14,45.00,60.00,Tuesday
9,20346171.4630026
514,0.0
545,83520642.8817224
2,3, 1, 3, 0,15, 0.00,15.00,Tuesday
9,20346171.4630026
514,0.0
545,82778649.1339839
2,3, 1, 3, 0,15,15.00,30.00,Tuesday
9,20346171.4630026
514,0.0
545,82360287.5586177
2,3, 1, 3, 0,15,30.00,45.00,Tuesday
9,20346171.4630026
514,0.0
545,82181017.3012744
2,3, 1, 3, 0,15,45.00,60.00,Tuesday
9,20346171.4630026
514,0.0
545,82120052.9915253
2,3, 1, 3, 0,16, 0.00,15.00,Tuesday
9,20346171.4630026
514,0.0
545,82074727.7724188
2,3, 1, 3, 0,16,15.00,30.00,Tuesday
9,20346171.4630026
514,0.0
545,82130978.8696012
2,3, 1, 3, 0,16,30.00,45.00,Tuesday
9,20346171.4630026
514,0.0
545,82092153.7808293
2,3, 1, 3, 0,16,45.00,60.00,Tuesday
9,20346171.4630026
514,0.0
545,82097221.3612787
2,3, 1, 3, 0,17, 0.00,15.00,Tuesday
9,20346171.4630026
514,0.0
545,82103876.3929243
2,3, 1, 3, 0,17,15.00,30.00,Tuesday
9,20346171.4630026
514,0.0
545,82108393.903361
2,3, 1, 3, 0,17,30.00,45.00,Tuesday
9,20346171.4630026
514,0.0
545,81631966.8784446
2,3, 1, 3, 0,17,45.00,60.00,Tuesday
9,20346171.4630026
514,0.0
545,81005541.7042111
2,3, 1, 3, 0,18, 0.00,15.00,Tuesday
9,17051021.3335512
514,0.0
545,74454672.6395762
2,3, 1, 3, 0,18,15.00,30.00,Tuesday
9,17051021.3335512
514,0.0
545,73539522.5954731
2,3, 1, 3, 0,18,30.00,45.00,Tuesday
9,17051021.3335512
514,0.0
545,71978262.3987861
2,3, 1, 3, 0,18,45.00,60.00,Tuesday
9,17051021.3335512
514,0.0
545,70439625.3726661
2,3, 1, 3, 0,19, 0.00,15.00,Tuesday
9,12529649.8973284
514,0.0
545,60460150.584921
2,3, 1, 3, 0,19,15.00,30.00,Tuesday
9,12529649.8973284
514,0.0
545,58446579.4590931
2,3, 1, 3, 0,19,30.00,45.00,Tuesday
9,12529649.8973284
514,0.0
545,57150679.2451852
2,3, 1, 3, 0,19,45.00,60.00,Tuesday
9,12529649.8973284
514,0.0
545,56021607.2666954
2,3, 1, 3, 0,20, 0.00,15.00,Tuesday
9,12529649.8973284
514,0.0
545,54337919.1554407
2,3, 1, 3, 0,20,15.00,30.00,Tuesday
9,12529649.8973284
514,0.0
545,52959973.2312899
2,3, 1, 3, 0,20,30.00,45.00,Tuesday
9,12529649.8973284
514,0.0
545,51830891.5000981
2,3, 1, 3, 0,20,45.00,60.00,Tuesday
9,12529649.8973284
514,0.0
545,50796430.3975963
2,3, 1, 3, 0,21, 0.00,15.00,Tuesday
9,9234499.76787687
514,0.0
545,31731251.1770165
2,3, 1, 3, 0,21,15.00,30.00,Tuesday
9,9234499.76787687
514,0.0
545,30283699.5928171
2,3, 1, 3, 0,21,30.00,45.00,Tuesday
9,9234499.76787687
514,0.0
545,28724554.6549617
2,3, 1, 3, 0,21,45.00,60.00,Tuesday
9,9234499.76787687
514,0.0
545,27442195.591257
2,3, 1, 3, 0,22, 0.00,15.00,Tuesday
9,9234499.76787687
514,0.0
545,26427357.2698991
2,3, 1, 3, 0,22,15.00,30.00,Tuesday
9,9234499.76787687
514,0.0
545,25648007.2423882
2,3, 1, 3, 0,22,30.00,45.00,Tuesday
9,9234499.76787687
514,0.0
545,24994003.6101489
2,3, 1, 3, 0,22,45.00,60.00,Tuesday
9,9234499.76787687
514,0.0
545,24395022.1264943
2,3, 1, 3, 0,23, 0.00,15.00,Tuesday
9,5939349.6384254
514,0.0
545,0.0
2,3, 1, 3, 0,23,15.00,30.00,Tuesday
9,5939349.6384254
514,0.0
545,0.0
2,3, 1, 3, 0,23,30.00,45.00,Tuesday
9,5939349.6384254
514,0.0
545,0.0
2,3, 1, 3, 0,23,45.00,60.00,Tuesday
9,5939349.6384254
514,0.0
545,0.0
2,3, 1, 3, 0,24, 0.00,15.00,Tuesday
9,5422117.43275536
514,0.0
545,378824.182520824
2,3, 1, 3, 0,24,15.00,30.00,Tuesday
9,5422117.43275536
514,0.0
545,1194467.06616845
2,3, 1, 3, 0,24,30.00,45.00,Tuesday
9,5422117.43275536
514,0.0
545,715502.263726327
2,3, 1, 3, 0,24,45.00,60.00,Tuesday
9,5422117.43275536
514,0.0
545,915379.932959808
2,4, 1, 4, 0, 1, 0.00,15.00,Wednesday
9,5422117.43275536
514,0.0
545,355376.754183076
2,4, 1, 4, 0, 1,15.00,30.00,Wednesday
9,5422117.43275536
514,0.0
545,345180.860744274
2,4, 1, 4, 0, 1,30.00,45.00,Wednesday
9,5422117.43275536
514,0.0
545,331364.792819113
2,4, 1, 4, 0, 1,45.00,60.00,Wednesday
9,5422117.43275536
514,0.0
545,314266.757406132
2,4, 1, 4, 0, 2, 0.00,15.00,Wednesday
9,5422117.43275536
514,0.0
545,284391.498058397
2,4, 1, 4, 0, 2,15.00,30.00,Wednesday
9,5422117.43275536
514,0.0
545,251745.475755747
2,4, 1, 4, 0, 2,30.00,45.00,Wednesday
9,5422117.43275536
514,0.0
545,216890.665068021
2,4, 1, 4, 0, 2,45.00,60.00,Wednesday
9,5422117.43275536
514,0.0
545,180118.436685681
2,4, 1, 4, 0, 3, 0.00,15.00,Wednesday
9,5422117.43275536
514,0.0
545,142729.488964535
2,4, 1, 4, 0, 3,15.00,30.00,Wednesday
9,5422117.43275536
514,0.0
545,104407.066968009
2,4, 1, 4, 0, 3,30.00,45.00,Wednesday
9,5422117.43275536
514,0.0
545,64909.9645634952
2,4, 1, 4, 0, 3,45.00,60.00,Wednesday
9,5422117.43275536
514,0.0
545,24421.3595308689
2,4, 1, 4, 0, 4, 0.00,15.00,Wednesday
9,5422117.43275536
514,0.0
545,0.0
2,4, 1, 4, 0, 4,15.00,30.00,Wednesday
9,5422117.43275536
514,0.0
545,0.0
2,4, 1, 4, 0, 4,30.00,45.00,Wednesday
9,5422117.43275536
514,0.0
545,0.0
2,4, 1, 4, 0, 4,45.00,60.00,Wednesday
9,5422117.43275536
514,0.0
545,0.0
2,4, 1, 4, 0, 5, 0.00,15.00,Wednesday
9,5422117.43275536
514,0.0
545,0.0
2,4, 1, 4, 0, 5,15.00,30.00,Wednesday
9,5422117.43275536
514,0.0
545,0.0
2,4, 1, 4, 0, 5,30.00,45.00,Wednesday
9,5422117.43275536
514,0.0
545,0.0
2,4, 1, 4, 0, 5,45.00,60.00,Wednesday
9,5422117.43275536
514,0.0
545,0.0
2,4, 1, 4, 0, 6, 0.00,15.00,Wednesday
9,5939349.6384254
514,0.0
545,0.0
2,4, 1, 4, 0, 6,15.00,30.00,Wednesday
9,5939349.6384254
514,0.0
545,0.0
2,4, 1, 4, 0, 6,30.00,45.00,Wednesday
9,5939349.6384254
514,0.0
545,118523.424593581
2,4, 1, 4, 0, 6,45.00,60.00,Wednesday
9,5939349.6384254
514,0.0
545,0.0
2,4, 1, 4, 0, 7, 0.00,15.00,Wednesday
9,5939349.6384254
514,0.0
545,61634792.6348662
2,4, 1, 4, 0, 7,15.00,30.00,Wednesday
9,5939349.6384254
514,0.0
545,18569365.398225
2,4, 1, 4, 0, 7,30.00,45.00,Wednesday
9,5939349.6384254
514,0.0
545,33559751.0015203
2,4, 1, 4, 0, 7,45.00,60.00,Wednesday
9,5939349.6384254
514,0.0
545,19070862.6988181
2,4, 1, 4, 0, 8, 0.00,15.00,Wednesday
9,8008278.46110554
514,0.0
545,25710095.9023169
2,4, 1, 4, 0, 8,15.00,30.00,Wednesday
9,8008278.46110554
514,0.0
545,24577665.9569917
2,4, 1, 4, 0, 8,30.00,45.00,Wednesday
9,8008278.46110554
514,0.0
545,23922235.5029584
2,4, 1, 4, 0, 8,45.00,60.00,Wednesday
9,8008278.46110554
514,0.0
545,23551016.546903
2,4, 1, 4, 0, 9, 0.00,15.00,Wednesday
9,20346171.4630026
514,0.0
545,58756827.4196562
2,4, 1, 4, 0, 9,15.00,30.00,Wednesday
9,20346171.4630026
514,0.0
545,63694316.4958192
2,4, 1, 4, 0, 9,30.00,45.00,Wednesday
9,20346171.4630026
514,0.0
545,63433356.2121786
2,4, 1, 4, 0, 9,45.00,60.00,Wednesday
9,20346171.4630026
514,0.0
545,65507462.1759822
2,4, 1, 4, 0,10, 0.00,15.00,Wednesday
9,20346171.4630026
514,0.0
545,66931351.201139
2,4, 1, 4, 0,10,15.00,30.00,Wednesday
9,20346171.4630026
514,0.0
545,68810692.4101597
2,4, 1, 4, 0,10,30.00,45.00,Wednesday
9,20346171.4630026
514,0.0
545,70346701.8761435
2,4, 1, 4, 0,10,45.00,60.00,Wednesday
9,20346171.4630026
514,0.0
545,72209381.0354586
2,4, 1, 4, 0,11, 0.00,15.00,Wednesday
9,20346171.4630026
514,0.0
545,74226621.1037131
2,4, 1, 4, 0,11,15.00,30.00,Wednesday
9,20346171.4630026
514,0.0
545,76037801.2230059
2,4, 1, 4, 0,11,30.00,45.00,Wednesday
9,20346171.4630026
514,0.0
545,77536407.2582551
2,4, 1, 4, 0,11,45.00,60.00,Wednesday
9,20346171.4630026
514,0.0
545,78884604.9800671
2,4, 1, 4, 0,12, 0.00,15.00,Wednesday
9,20346171.4630026
514,0.0
545,79079600.3912635
2,4, 1, 4, 0,12,15.00,30.00,Wednesday
9,20346171.4630026
514,0.0
545,79566364.8700272
2,4, 1, 4, 0,12,30.00,45.00,Wednesday
9,20346171.4630026
514,0.0
545,80142051.9152814
2,4, 1, 4, 0,12,45.00,60.00,Wednesday
9,20346171.4630026
514,0.0
545,80790203.0768356
2,4, 1, 4, 0,13, 0.00,15.00,Wednesday
9,19119950.1562313
514,0.0
545,78375021.4499688
2,4, 1, 4, 0,13,15.00,30.00,Wednesday
9,19119950.1562313
514,0.0
545,78958363.0610892
2,4, 1, 4, 0,13,30.00,45.00,Wednesday
9,19119950.1562313
514,0.0
545,79060480.6464075
2,4, 1, 4, 0,13,45.00,60.00,Wednesday
9,19119950.1562313
514,0.0
545,79048368.4735439
2,4, 1, 4, 0,14, 0.00,15.00,Wednesday
9,20346171.4630026
514,0.0
545,82160361.7101232
2,4, 1, 4, 0,14,15.00,30.00,Wednesday
9,20346171.4630026
514,0.0
545,82409305.1798485
2,4, 1, 4, 0,14,30.00,45.00,Wednesday
9,20346171.4630026
514,0.0
545,82772401.5302686
2,4, 1, 4, 0,14,45.00,60.00,Wednesday
9,20346171.4630026
514,0.0
545,83257979.5933103