Program Version,EnergyPlus, Version 8.5.0-c87e61b44b, YMD=2017.12.19 16:33
1,5,Environment Title[],Latitude[deg],Longitude[deg],Time Zone[],Elevation[m]
2,6,Day of Simulation[],Month[],Day of Month[],DST Indicator[1=yes 0=no],Hour[],StartMinute[],EndMinute[],DayType
3,3,Cumulative Day of Simulation[],Month[],Day of Month[],DST Indicator[1=yes 0=no],DayType  ! When Daily Meters Requested
4,2,Cumulative Days of Simulation[],Month[]  ! When Monthly Meters Requested
5,1,Cumulative Days of Simulation[] ! When Run Period Meters Requested
9,1,Electricity:Facility [J] !TimeStep
545,1,DistrictCooling:Facility [J] !TimeStep
514,1,DistrictHeating:Facility [J] !TimeStep
End of Data Dictionary
1,RUN PERIOD 1,  44.92,   9.73,   1.00, 134.00
2,1, 1, 1, 0, 1, 0.00,15.00,Sunday
9,4195896.12598403
514,28050173.244644
545,0.0
2,1, 1, 1, 0, 1,15.00,30.00,Sunday
9,4195896.12598403
514,29371422.5872248
545,0.0
2,1, 1, 1, 0, 1,30.00,45.00,Sunday
9,4195896.12598403
514,30717624.8290219
545,0.0
2,1, 1, 1, 0, 1,45.00,60.00,Sunday
9,4195896.12598403
514,32084027.7635987
545,0.0
2,1, 1, 1, 0, 2, 0.00,15.00,Sunday
9,4195896.12598403
514,32173843.9052635
545,0.0
2,1, 1, 1, 0, 2,15.00,30.00,Sunday
9,4195896.12598403
514,32255365.3695595
545,0.0
2,1, 1, 1, 0, 2,30.00,45.00,Sunday
9,4195896.12598403
514,32328003.9862886
545,0.0
2,1, 1, 1, 0, 2,45.00,60.00,Sunday
9,4195896.12598403
514,32398193.6373146
545,0.0
2,1, 1, 1, 0, 3, 0.00,15.00,Sunday
9,4195896.12598403
514,32535068.7725957
545,0.0
2,1, 1, 1, 0, 3,15.00,30.00,Sunday
9,4195896.12598403
514,32669400.1173137
545,0.0
2,1, 1, 1, 0, 3,30.00,45.00,Sunday
9,4195896.12598403
514,32805328.8692225
545,0.0
2,1, 1, 1, 0, 3,45.00,60.00,Sunday
9,4195896.12598403
514,32942589.5356936
545,0.0
2,1, 1, 1, 0, 4, 0.00,15.00,Sunday
9,4195896.12598403
514,33069761.0607524
545,0.0
2,1, 1, 1, 0, 4,15.00,30.00,Sunday
9,4195896.12598403
514,33198138.7223188
545,0.0
2,1, 1, 1, 0, 4,30.00,45.00,Sunday
9,4195896.12598403
514,33327054.0279368
545,0.0
2,1, 1, 1, 0, 4,45.00,60.00,Sunday
9,4195896.12598403
514,33456602.9942555
545,0.0
2,1, 1, 1, 0, 5, 0.00,15.00,Sunday
9,4195896.12598403
514,33513251.8308737
545,0.0
2,1, 1, 1, 0, 5,15.00,30.00,Sunday
9,4195896.12598403
514,33570857.3842441
545,0.0
2,1, 1, 1, 0, 5,30.00,45.00,Sunday
9,4195896.12598403
514,33625239.4622839
545,0.0
2,1, 1, 1, 0, 5,45.00,60.00,Sunday
9,4195896.12598403
514,33677262.2407257
545,0.0
2,1, 1, 1, 0, 6, 0.00,15.00,Sunday
9,4195896.12598403
514,33785671.6682692
545,0.0
2,1, 1, 1, 0, 6,15.00,30.00,Sunday
9,4195896.12598403
514,33891778.1735777
545,0.0
2,1, 1, 1, 0, 6,30.00,45.00,Sunday
9,4195896.12598403
514,33998864.0573485
545,0.0
2,1, 1, 1, 0, 6,45.00,60.00,Sunday
9,4195896.12598403
514,34106134.412339
545,0.0
2,1, 1, 1, 0, 7, 0.00,15.00,Sunday
9,4195896.12598403
514,34179443.3088301
545,0.0
2,1, 1, 1, 0, 7,15.00,30.00,Sunday
9,4195896.12598403
514,34251430.3339028
545,0.0
2,1, 1, 1, 0, 7,30.00,45.00,Sunday
9,4195896.12598403
514,34322701.5642455
545,0.0
2,1, 1, 1, 0, 7,45.00,60.00,Sunday
9,4195896.12598403
514,34392712.3567673
545,0.0
2,1, 1, 1, 0, 8, 0.00,15.00,Sunday
9,4195896.12598403
514,34375504.7411662
545,0.0
2,1, 1, 1, 0, 8,15.00,30.00,Sunday
9,4195896.12598403
514,34354066.3328984
545,0.0
2,1, 1, 1, 0, 8,30.00,45.00,Sunday
9,4195896.12598403
514,34329560.9802631
545,0.0
2,1, 1, 1, 0, 8,45.00,60.00,Sunday
9,4195896.12598403
514,34303134.3669631
545,0.0
2,1, 1, 1, 0, 9, 0.00,15.00,Sunday
9,4195896.12598403
514,33870400.5586687
545,0.0
2,1, 1, 1, 0, 9,15.00,30.00,Sunday
9,4195896.12598403
514,33545120.2772046
545,0.0
2,1, 1, 1, 0, 9,30.00,45.00,Sunday
9,4195896.12598403
514,33083243.2753535
545,0.0
2,1, 1, 1, 0, 9,45.00,60.00,Sunday
9,4195896.12598403
514,32577512.1598158
545,0.0
2,1, 1, 1, 0,10, 0.00,15.00,Sunday
9,4195896.12598403
514,32194773.1797074
545,0.0
2,1, 1, 1, 0,10,15.00,30.00,Sunday
9,4195896.12598403
514,31788534.9666385
545,0.0
2,1, 1, 1, 0,10,30.00,45.00,Sunday
9,4195896.12598403
514,31408759.2086799
545,0.0
2,1, 1, 1, 0,10,45.00,60.00,Sunday
9,4195896.12598403
514,31022655.7769482
545,0.0
2,1, 1, 1, 0,11, 0.00,15.00,Sunday
9,4195896.12598403
514,30690407.428516
545,0.0
2,1, 1, 1, 0,11,15.00,30.00,Sunday
9,4195896.12598403
514,30343920.0227731
545,0.0
2,1, 1, 1, 0,11,30.00,45.00,Sunday
9,4195896.12598403
514,30031178.4035226
545,0.0
2,1, 1, 1, 0,11,45.00,60.00,Sunday
9,4195896.12598403
514,29721770.0729903
545,0.0
2,1, 1, 1, 0,12, 0.00,15.00,Sunday
9,4195896.12598403
514,29382495.325551
545,0.0
2,1, 1, 1, 0,12,15.00,30.00,Sunday
9,4195896.12598403
514,28834304.6822492
545,0.0
2,1, 1, 1, 0,12,30.00,45.00,Sunday
9,4195896.12598403
514,28437261.3152859
545,0.0
2,1, 1, 1, 0,12,45.00,60.00,Sunday
9,4195896.12598403
514,28102431.3910075
545,0.0
2,1, 1, 1, 0,13, 0.00,15.00,Sunday
9,4195896.12598403
514,27946379.589718
545,0.0
2,1, 1, 1, 0,13,15.00,30.00,Sunday
9,4195896.12598403
514,27783455.1314612
545,0.0
2,1, 1, 1, 0,13,30.00,45.00,Sunday
9,4195896.12598403
514,27702015.4860641
545,0.0
2,1, 1, 1, 0,13,45.00,60.00,Sunday
9,4195896.12598403
514,27653835.4532863
545,0.0
2,1, 1, 1, 0,14, 0.00,15.00,Sunday
9,4195896.12598403
514,27242118.2273567
545,0.0
2,1, 1, 1, 0,14,15.00,30.00,Sunday
9,4195896.12598403
514,27040749.70061
545,0.0
2,1, 1, 1, 0,14,30.00,45.00,Sunday
9,4195896.12598403
514,26803300.8705443
545,0.0
2,1, 1, 1, 0,14,45.00,60.00,Sunday
9,4195896.12598403
514,26582942.7771933
545,0.0
2,1, 1, 1, 0,15, 0.00,15.00,Sunday
9,4195896.12598403
514,26218531.2426921
545,0.0
2,1, 1, 1, 0,15,15.00,30.00,Sunday
9,4195896.12598403
514,25837348.1273851
545,0.0
2,1, 1, 1, 0,15,30.00,45.00,Sunday
9,4195896.12598403
514,25501088.8215832
545,0.0
2,1, 1, 1, 0,15,45.00,60.00,Sunday
9,4195896.12598403
514,25181249.1244888
545,0.0
2,1, 1, 1, 0,16, 0.00,15.00,Sunday
9,4195896.12598403
514,24724052.0430267
545,0.0
2,1, 1, 1, 0,16,15.00,30.00,Sunday
9,4195896.12598403
514,24261618.0404354
545,0.0
2,1, 1, 1, 0,16,30.00,45.00,Sunday
9,4195896.12598403
514,23815560.7312629
545,0.0
2,1, 1, 1, 0,16,45.00,60.00,Sunday
9,4195896.12598403
514,23387705.287704
545,0.0
2,1, 1, 1, 0,17, 0.00,15.00,Sunday
9,4195896.12598403
514,23463467.7140496
545,0.0
2,1, 1, 1, 0,17,15.00,30.00,Sunday
9,4195896.12598403
514,23601643.4122253
545,0.0
2,1, 1, 1, 0,17,30.00,45.00,Sunday
9,4195896.12598403
514,23716185.2486738
545,0.0
2,1, 1, 1, 0,17,45.00,60.00,Sunday
9,4195896.12598403
514,23726795.5976206
545,0.0
2,1, 1, 1, 0,18, 0.00,15.00,Sunday
9,4195896.12598403
514,23774843.5475347
545,0.0
2,1, 1, 1, 0,18,15.00,30.00,Sunday
9,4195896.12598403
514,23815587.8163212
545,0.0
2,1, 1, 1, 0,18,30.00,45.00,Sunday
9,4195896.12598403
514,23844801.9607472
545,0.0
2,1, 1, 1, 0,18,45.00,60.00,Sunday
9,4195896.12598403
514,23864064.4895672
545,0.0
2,1, 1, 1, 0,19, 0.00,15.00,Sunday
9,4195896.12598403
514,23965775.9917068
545,0.0
2,1, 1, 1, 0,19,15.00,30.00,Sunday
9,4195896.12598403
514,24061060.5491764
545,0.0
2,1, 1, 1, 0,19,30.00,45.00,Sunday
9,4195896.12598403
514,24148495.3158897
545,0.0
2,1, 1, 1, 0,19,45.00,60.00,Sunday
9,4195896.12598403
514,24228114.7152825
545,0.0
2,1, 1, 1, 0,20, 0.00,15.00,Sunday
9,4195896.12598403
514,24317517.2012303
545,0.0
2,1, 1, 1, 0,20,15.00,30.00,Sunday
9,4195896.12598403
514,24396880.3760203
545,0.0
2,1, 1, 1, 0,20,30.00,45.00,Sunday
9,4195896.12598403
514,24481779.8772652
545,0.0
2,1, 1, 1, 0,20,45.00,60.00,Sunday
9,4195896.12598403
514,24563834.5229987
545,0.0
2,1, 1, 1, 0,21, 0.00,15.00,Sunday
9,4195896.12598403
514,24786619.918001
545,0.0
2,1, 1, 1, 0,21,15.00,30.00,Sunday
9,4195896.12598403
514,25021124.3204957
545,0.0
2,1, 1, 1, 0,21,30.00,45.00,Sunday
9,4195896.12598403
514,25258045.4330801
545,0.0
2,1, 1, 1, 0,21,45.00,60.00,Sunday
9,4195896.12598403
514,25491784.7406765
545,0.0
2,1, 1, 1, 0,22, 0.00,15.00,Sunday
9,4195896.12598403
514,25691955.2604004
545,0.0
2,1, 1, 1, 0,22,15.00,30.00,Sunday
9,4195896.12598403
514,25882366.3048805
545,0.0
2,1, 1, 1, 0,22,30.00,45.00,Sunday
9,4195896.12598403
514,26076855.6702007
545,0.0
2,1, 1, 1, 0,22,45.00,60.00,Sunday
9,4195896.12598403
514,26286200.84818
545,0.0
2,1, 1, 1, 0,23, 0.00,15.00,Sunday
9,4195896.12598403
514,26358873.6800246
545,0.0
2,1, 1, 1, 0,23,15.00,30.00,Sunday
9,4195896.12598403
514,26433439.7360607
545,0.0
2,1, 1, 1, 0,23,30.00,45.00,Sunday
9,4195896.12598403
514,26508945.7147357
545,0.0
2,1, 1, 1, 0,23,45.00,60.00,Sunday
9,4195896.12598403
514,26585257.7694995
545,0.0
2,1, 1, 1, 0,24, 0.00,15.00,Sunday
9,4195896.12598403
514,26627570.0632003
545,0.0
2,1, 1, 1, 0,24,15.00,30.00,Sunday
9,4195896.12598403
514,26670542.6917752
545,0.0
2,1, 1, 1, 0,24,30.00,45.00,Sunday
9,4195896.12598403
514,26714357.8361433
545,0.0
2,1, 1, 1, 0,24,45.00,60.00,Sunday
9,4195896.12598403
514,26758952.5610539
545,0.0
2,2, 1, 2, 0, 1, 0.00,15.00,Monday
9,5422117.43275536
514,25478455.4073274
545,0.0
2,2, 1, 2, 0, 1,15.00,30.00,Monday
9,5422117.43275536
514,25423677.0934516
545,0.0
2,2, 1, 2, 0, 1,30.00,45.00,Monday
9,5422117.43275536
514,25364565.0853185
545,0.0
2,2, 1, 2, 0, 1,45.00,60.00,Monday
9,5422117.43275536
514,25302580.3631868
545,0.0
2,2, 1, 2, 0, 2, 0.00,15.00,Monday
9,5422117.43275536
514,25425991.8467717
545,0.0
2,2, 1, 2, 0, 2,15.00,30.00,Monday
9,5422117.43275536
514,25547427.3206576
545,0.0
2,2, 1, 2, 0, 2,30.00,45.00,Monday
9,5422117.43275536
514,25675044.6181484
545,0.0
2,2, 1, 2, 0, 2,45.00,60.00,Monday
9,5422117.43275536
514,25806276.163244
545,0.0
2,2, 1, 2, 0, 3, 0.00,15.00,Monday
9,5422117.43275536
514,25789965.9723565
545,0.0
2,2, 1, 2, 0, 3,15.00,30.00,Monday
9,5422117.43275536
514,25775107.3930852
545,0.0
2,2, 1, 2, 0, 3,30.00,45.00,Monday
9,5422117.43275536
514,25754298.1978049
545,0.0
2,2, 1, 2, 0, 3,45.00,60.00,Monday
9,5422117.43275536
514,25728429.2010449
545,0.0
2,2, 1, 2, 0, 4, 0.00,15.00,Monday
9,5422117.43275536
514,25766564.9534514
545,0.0
2,2, 1, 2, 0, 4,15.00,30.00,Monday
9,5422117.43275536
514,25804317.0777027
545,0.0
2,2, 1, 2, 0, 4,30.00,45.00,Monday
9,5422117.43275536
514,25843179.0489027
545,0.0
2,2, 1, 2, 0, 4,45.00,60.00,Monday
9,5422117.43275536
514,25882197.4996032
545,0.0
2,2, 1, 2, 0, 5, 0.00,15.00,Monday
9,5422117.43275536
514,25846884.2637394
545,0.0
2,2, 1, 2, 0, 5,15.00,30.00,Monday
9,5422117.43275536
514,25810246.8244161
545,0.0
2,2, 1, 2, 0, 5,30.00,45.00,Monday
9,5422117.43275536
514,25773076.8700613
545,0.0
2,2, 1, 2, 0, 5,45.00,60.00,Monday
9,5422117.43275536
514,25735075.9404595
545,0.0
2,2, 1, 2, 0, 6, 0.00,15.00,Monday
9,5939349.6384254
514,25044246.3679404
545,0.0
2,2, 1, 2, 0, 6,15.00,30.00,Monday
9,5939349.6384254
514,24868291.3980868
545,0.0
2,2, 1, 2, 0, 6,30.00,45.00,Monday
9,5939349.6384254
514,24686488.2116845
545,0.0
2,2, 1, 2, 0, 6,45.00,60.00,Monday
9,5939349.6384254
514,24500423.8539817
545,0.0
2,2, 1, 2, 0, 7, 0.00,15.00,Monday
9,5939349.6384254
514,155612484.218658
545,0.0
2,2, 1, 2, 0, 7,15.00,30.00,Monday
9,5939349.6384254
514,85111498.6097957
545,0.0
2,2, 1, 2, 0, 7,30.00,45.00,Monday
9,5939349.6384254
514,113230777.308418
545,0.0
2,2, 1, 2, 0, 7,45.00,60.00,Monday
9,5939349.6384254
514,79044762.8299246
545,0.0
2,2, 1, 2, 0, 8, 0.00,15.00,Monday
9,8008278.46110554
514,78617805.1507164
545,0.0
2,2, 1, 2, 0, 8,15.00,30.00,Monday
9,8008278.46110554
514,76064606.9269764
545,0.0
2,2, 1, 2, 0, 8,30.00,45.00,Monday
9,8008278.46110554
514,73898998.3545252
545,0.0
2,2, 1, 2, 0, 8,45.00,60.00,Monday
9,8008278.46110554
514,72031166.2927243
545,0.0
2,2, 1, 2, 0, 9, 0.00,15.00,Monday
9,20346171.4630026
514,64936955.4103741
545,0.0
2,2, 1, 2, 0, 9,15.00,30.00,Monday
9,20346171.4630026
514,62942379.4297775
545,0.0
2,2, 1, 2, 0, 9,30.00,45.00,Monday
9,20346171.4630026
514,61118746.0053468
545,0.0
2,2, 1, 2, 0, 9,45.00,60.00,Monday
9,20346171.4630026
514,59384362.2374616
545,0.0
2,2, 1, 2, 0,10, 0.00,15.00,Monday
9,20346171.4630026
514,57868541.8147862
545,0.0
2,2, 1, 2, 0,10,15.00,30.00,Monday
9,20346171.4630026
514,56424796.3054992
545,0.0
2,2, 1, 2, 0,10,30.00,45.00,Monday
9,20346171.4630026
514,55061210.2641543
545,0.0
2,2, 1, 2, 0,10,45.00,60.00,Monday
9,20346171.4630026
514,53754993.3078743
545,0.0
2,2, 1, 2, 0,11, 0.00,15.00,Monday
9,20346171.4630026
514,52352191.5343636
545,0.0
2,2, 1, 2, 0,11,15.00,30.00,Monday
9,20346171.4630026
514,50975490.172646
545,0.0
2,2, 1, 2, 0,11,30.00,45.00,Monday
9,20346171.4630026
514,49707380.2311204
545,0.0
2,2, 1, 2, 0,11,45.00,60.00,Monday
9,20346171.4630026
514,48469252.5078012
545,0.0
2,2, 1, 2, 0,12, 0.00,15.00,Monday
9,20346171.4630026
514,47259095.2789867
545,0.0
2,2, 1, 2, 0,12,15.00,30.00,Monday
9,20346171.4630026
514,46069749.0532451
545,0.0
2,2, 1, 2, 0,12,30.00,45.00,Monday
9,20346171.4630026
514,44929773.2287336
545,0.0
2,2, 1, 2, 0,12,45.00,60.00,Monday
9,20346171.4630026
514,43830314.4404672
545,0.0
2,2, 1, 2, 0,13, 0.00,15.00,Monday
9,19119950.1562313
514,43137996.4472444
545,0.0
2,2, 1, 2, 0,13,15.00,30.00,Monday
9,19119950.1562313
514,41877430.8343374
545,0.0
2,2, 1, 2, 0,13,30.00,45.00,Monday
9,19119950.1562313
514,40668161.1706773
545,0.0
2,2, 1, 2, 0,13,45.00,60.00,Monday
9,19119950.1562313
514,39498679.7869806
545,0.0
2,2, 1, 2, 0,14, 0.00,15.00,Monday
9,20346171.4630026
514,38063196.1788283
545,0.0
2,2, 1, 2, 0,14,15.00,30.00,Monday
9,20346171.4630026
514,37279504.9821237
545,0.0
2,2, 1, 2, 0,14,30.00,45.00,Monday
9,20346171.4630026
514,36568431.2295944
545,0.0
2,2, 1, 2, 0,14,45.00,60.00,Monday
9,20346171.4630026
514,35894233.945289
545,0.0
2,2, 1, 2, 0,15, 0.00,15.00,Monday
9,20346171.4630026
514,35241478.8996454
545,0.0
2,2, 1, 2, 0,15,15.00,30.00,Monday
9,20346171.4630026
514,34608974.1468301
545,0.0
2,2, 1, 2, 0,15,30.00,45.00,Monday
9,20346171.4630026
514,34035616.8072651
545,0.0
2,2, 1, 2, 0,15,45.00,60.00,Monday
9,20346171.4630026
514,33504451.1179543
545,0.0
2,2, 1, 2, 0,16, 0.00,15.00,Monday
9,20346171.4630026
514,33036911.190934
545,0.0
2,2, 1, 2, 0,16,15.00,30.00,Monday
9,20346171.4630026
514,32573444.2057391
545,0.0
2,2, 1, 2, 0,16,30.00,45.00,Monday
9,20346171.4630026
514,32133007.6459862
545,0.0
2,2, 1, 2, 0,16,45.00,60.00,Monday
9,20346171.4630026
514,31712808.2845287
545,0.0
2,2, 1, 2, 0,17, 0.00,15.00,Monday
9,20346171.4630026
514,31621396.4578819
545,0.0
2,2, 1, 2, 0,17,15.00,30.00,Monday
9,20346171.4630026
514,31556413.6656714
545,0.0
2,2, 1, 2, 0,17,30.00,45.00,Monday
9,20346171.4630026
514,31521392.9220926
545,0.0
2,2, 1, 2, 0,17,45.00,60.00,Monday
9,20346171.4630026
514,31419237.364115
545,0.0
2,2, 1, 2, 0,18, 0.00,15.00,Monday
9,17051021.3335512
514,34428551.3702266
545,0.0
2,2, 1, 2, 0,18,15.00,30.00,Monday
9,17051021.3335512
514,34355594.7889333
545,0.0
2,2, 1, 2, 0,18,30.00,45.00,Monday
9,17051021.3335512
514,34278057.1458528
545,0.0
2,2, 1, 2, 0,18,45.00,60.00,Monday
9,17051021.3335512
514,34201120.9165674
545,0.0
2,2, 1, 2, 0,19, 0.00,15.00,Monday
9,12529649.8973284
514,38419500.2862105
545,0.0
2,2, 1, 2, 0,19,15.00,30.00,Monday
9,12529649.8973284
514,38597476.4451889
545,0.0
2,2, 1, 2, 0,19,30.00,45.00,Monday
9,12529649.8973284
514,38778870.5931535
545,0.0
2,2, 1, 2, 0,19,45.00,60.00,Monday
9,12529649.8973284
514,38982193.7749985
545,0.0
2,2, 1, 2, 0,20, 0.00,15.00,Monday
9,12529649.8973284
514,38846405.3992193
545,0.0
2,2, 1, 2, 0,20,15.00,30.00,Monday
9,12529649.8973284
514,38718746.9292955
545,0.0
2,2, 1, 2, 0,20,30.00,45.00,Monday
9,12529649.8973284
514,38595866.6777579
545,0.0
2,2, 1, 2, 0,20,45.00,60.00,Monday
9,12529649.8973284
514,38479162.0904482
545,0.0
2,2, 1, 2, 0,21, 0.00,15.00,Monday
9,9234499.76787687
514,34610730.6494804
545,0.0
2,2, 1, 2, 0,21,15.00,30.00,Monday
9,9234499.76787687
514,34725044.089344
545,0.0
2,2, 1, 2, 0,21,30.00,45.00,Monday
9,9234499.76787687
514,34772642.3998749
545,0.0
2,2, 1, 2, 0,21,45.00,60.00,Monday
9,9234499.76787687
514,34786542.5625496
545,0.0
2,2, 1, 2, 0,22, 0.00,15.00,Monday
9,9234499.76787687
514,34733936.3238128
545,0.0
2,2, 1, 2, 0,22,15.00,30.00,Monday
9,9234499.76787687
514,34667591.1379141
545,0.0
2,2, 1, 2, 0,22,30.00,45.00,Monday
9,9234499.76787687
514,34605643.9210797
545,0.0
2,2, 1, 2, 0,22,45.00,60.00,Monday
9,9234499.76787687
514,34543430.4752564
545,0.0
2,2, 1, 2, 0,23, 0.00,15.00,Monday
9,5939349.6384254
514,0.0
545,0.0
2,2, 1, 2, 0,23,15.00,30.00,Monday
9,5939349.6384254
514,674699.631349743
545,0.0
2,2, 1, 2, 0,23,30.00,45.00,Monday
9,5939349.6384254
514,2347693.35413272
545,0.0
2,2, 1, 2, 0,23,45.00,60.00,Monday
9,5939349.6384254
514,3762930.61812091
545,0.0
2,2, 1, 2, 0,24, 0.00,15.00,Monday
9,5422117.43275536
514,4638830.06550532
545,0.0
2,2, 1, 2, 0,24,15.00,30.00,Monday
9,5422117.43275536
514,5083313.4475861
545,0.0
2,2, 1, 2, 0,24,30.00,45.00,Monday
9,5422117.43275536
514,5428476.08652016
545,0.0
2,2, 1, 2, 0,24,45.00,60.00,Monday
9,5422117.43275536
514,5679443.96511275
545,0.0
2,3, 1, 3, 0, 1, 0.00,15.00,Tuesday
9,5422117.43275536
514,5980459.96626758
545,0.0
2,3, 1, 3, 0, 1,15.00,30.00,Tuesday
9,5422117.43275536
514,6219575.48778864
545,0.0
2,3, 1, 3, 0, 1,30.00,45.00,Tuesday
9,5422117.43275536
514,6446367.57360208
545,0.0
2,3, 1, 3, 0, 1,45.00,60.00,Tuesday
9,5422117.43275536
514,6663475.76867728
545,0.0
2,3, 1, 3, 0, 2, 0.00,15.00,Tuesday
9,5422117.43275536
514,6788230.35999408
545,0.0
2,3, 1, 3, 0, 2,15.00,30.00,Tuesday
9,5422117.43275536
514,6905140.74395961
545,0.0
2,3, 1, 3, 0, 2,30.00,45.00,Tuesday
9,5422117.43275536
514,7014327.52887642
545,0.0
2,3, 1, 3, 0, 2,45.00,60.00,Tuesday
9,5422117.43275536
514,7116416.11219872
545,0.0
2,3, 1, 3, 0, 3, 0.00,15.00,Tuesday
9,5422117.43275536
514,7216367.309389
545,0.0
2,3, 1, 3, 0, 3,15.00,30.00,Tuesday
9,5422117.43275536
514,7496766.06942089
545,0.0
2,3, 1, 3, 0, 3,30.00,45.00,Tuesday
9,5422117.43275536
514,7556455.964597
545,0.0
2,3, 1, 3, 0, 3,45.00,60.00,Tuesday
9,5422117.43275536
514,7722763.84859746
545,0.0
2,3, 1, 3, 0, 4, 0.00,15.00,Tuesday
9,5422117.43275536
514,7854838.37499881
545,0.0
2,3, 1, 3, 0, 4,15.00,30.00,Tuesday
9,5422117.43275536
514,8251389.47089432
545,0.0
2,3, 1, 3, 0, 4,30.00,45.00,Tuesday
9,5422117.43275536
514,8201728.99577145
545,0.0
2,3, 1, 3, 0, 4,45.00,60.00,Tuesday
9,5422117.43275536
514,8372258.03761118
545,0.0
2,3, 1, 3, 0, 5, 0.00,15.00,Tuesday
9,5422117.43275536
514,8626172.58551484
545,0.0
2,3, 1, 3, 0, 5,15.00,30.00,Tuesday
9,5422117.43275536
514,8874674.14659822
545,0.0
2,3, 1, 3, 0, 5,30.00,45.00,Tuesday
9,5422117.43275536
514,9118268.79108672
545,0.0
2,3, 1, 3, 0, 5,45.00,60.00,Tuesday
9,5422117.43275536
514,9356931.2371669
545,0.0
2,3, 1, 3, 0, 6, 0.00,15.00,Tuesday
9,5939349.6384254
514,9112872.36412831
545,0.0
2,3, 1, 3, 0, 6,15.00,30.00,Tuesday
9,5939349.6384254
514,9257512.12800162
545,0.0
2,3, 1, 3, 0, 6,30.00,45.00,Tuesday
9,5939349.6384254
514,9392125.77088153
545,0.0
2,3, 1, 3, 0, 6,45.00,60.00,Tuesday
9,5939349.6384254
514,9516327.70714473
545,0.0
2,3, 1, 3, 0, 7, 0.00,15.00,Tuesday
9,5939349.6384254
514,119855396.573815
545,0.0
2,3, 1, 3, 0, 7,15.00,30.00,Tuesday
9,5939349.6384254
514,68209361.0944769
545,0.0
2,3, 1, 3, 0, 7,30.00,45.00,Tuesday
9,5939349.6384254
514,94550536.214636
545,0.0
2,3, 1, 3, 0, 7,45.00,60.00,Tuesday
9,5939349.6384254
514,54807562.3671444
545,0.0
2,3, 1, 3, 0, 8, 0.00,15.00,Tuesday
9,8008278.46110554
514,56674400.0930174
545,0.0
2,3, 1, 3, 0, 8,15.00,30.00,Tuesday
9,8008278.46110554
514,55087478.4960725
545,0.0
2,3, 1, 3, 0, 8,30.00,45.00,Tuesday
9,8008278.46110554
514,53785174.2291552
545,0.0
2,3, 1, 3, 0, 8,45.00,60.00,Tuesday
9,8008278.46110554
514,52688933.023875
545,0.0
2,3, 1, 3, 0, 9, 0.00,15.00,Tuesday
9,20346171.4630026
514,45388332.4495952
545,0.0
2,3, 1, 3, 0, 9,15.00,30.00,Tuesday
9,20346171.4630026
514,44356931.9524803
545,0.0
2,3, 1, 3, 0, 9,30.00,45.00,Tuesday
9,20346171.4630026
514,43445904.8010856
545,0.0
2,3, 1, 3, 0, 9,45.00,60.00,Tuesday
9,20346171.4630026
514,42608214.6123504
545,0.0
2,3, 1, 3, 0,10, 0.00,15.00,Tuesday
9,20346171.4630026
514,41751439.8013353
545,0.0
2,3, 1, 3, 0,10,15.00,30.00,Tuesday
9,20346171.4630026
514,40940468.727949
545,0.0
2,3, 1, 3, 0,10,30.00,45.00,Tuesday
9,20346171.4630026
514,40171459.9348172
545,0.0
2,3, 1, 3, 0,10,45.00,60.00,Tuesday
9,20346171.4630026
514,39432822.3661944
545,0.0
2,3, 1, 3, 0,11, 0.00,15.00,Tuesday
9,20346171.4630026
514,38560675.9353058
545,0.0
2,3, 1, 3, 0,11,15.00,30.00,Tuesday
9,20346171.4630026
514,37706537.6839921
545,0.0
2,3, 1, 3, 0,11,30.00,45.00,Tuesday
9,20346171.4630026
514,36912569.0012567
545,0.0
2,3, 1, 3, 0,11,45.00,60.00,Tuesday
9,20346171.4630026
514,36147401.4001878
545,0.0
2,3, 1, 3, 0,12, 0.00,15.00,Tuesday
9,20346171.4630026
514,35104736.6154197
545,0.0
2,3, 1, 3, 0,12,15.00,30.00,Tuesday
9,20346171.4630026
514,34078377.3077071
545,0.0
2,3, 1, 3, 0,12,30.00,45.00,Tuesday
9,20346171.4630026
514,33100513.6544954
545,0.0
2,3, 1, 3, 0,12,45.00,60.00,Tuesday
9,20346171.4630026
514,32147680.0656242
545,0.0
2,3, 1, 3, 0,13, 0.00,15.00,Tuesday
9,19119950.1562313
514,31705363.1299092
545,0.0
2,3, 1, 3, 0,13,15.00,30.00,Tuesday
9,19119950.1562313
514,30616825.4830007
545,0.0
2,3, 1, 3, 0,13,30.00,45.00,Tuesday
9,19119950.1562313
514,29565715.9116626
545,0.0
2,3, 1, 3, 0,13,45.00,60.00,Tuesday
9,19119950.1562313
514,28537466.2584009
545,0.0
2,3, 1, 3, 0,14, 0.00,15.00,Tuesday
9,20346171.4630026
514,27922835.76671
545,0.0
2,3, 1, 3, 0,14,15.00,30.00,Tuesday
9,20346171.4630026
514,27567957.8244241
545,0.0
2,3, 1, 3, 0,14,30.00,45.00,Tuesday
9,20346171.4630026
514,27264677.8909511
545,0.0
2,3, 1, 3, 0,14,45.00,60.00,Tuesday
9,20346171.4630026
514,26987334.5117455
545,0.0
2,3, 1, 3, 0,15, 0.00,15.00,Tuesday
9,20346171.4630026
514,26776369.3861402
545,0.0
2,3, 1, 3, 0,15,15.00,30.00,Tuesday
9,20346171.4630026
514,26575922.7967853
545,0.0
2,3, 1, 3, 0,15,30.00,45.00,Tuesday
9,20346171.4630026
514,26410084.8991252
545,0.0
2,3, 1, 3, 0,15,45.00,60.00,Tuesday
9,20346171.4630026
514,26267566.6152902
545,0.0
2,3, 1, 3, 0,16, 0.00,15.00,Tuesday
9,20346171.4630026
514,26286419.4409065
545,0.0
2,3, 1, 3, 0,16,15.00,30.00,Tuesday
9,20346171.4630026
514,26318373.111057
545,0.0
2,3, 1, 3, 0,16,30.00,45.00,Tuesday
9,20346171.4630026
514,26367116.813834
545,0.0
2,3, 1, 3, 0,16,45.00,60.00,Tuesday
9,20346171.4630026
514,26431202.9882489
545,0.0
2,3, 1, 3, 0,17, 0.00,15.00,Tuesday
9,20346171.4630026
514,26581374.5195585
545,0.0
2,3, 1, 3, 0,17,15.00,30.00,Tuesday
9,20346171.4630026
514,26745211.4164858
545,0.0
2,3, 1, 3, 0,17,30.00,45.00,Tuesday
9,20346171.4630026
514,26877441.7000122
545,0.0
2,3, 1, 3, 0,17,45.00,60.00,Tuesday
9,20346171.4630026
514,27040230.7836347
545,0.0
2,3, 1, 3, 0,18, 0.00,15.00,Tuesday
9,17051021.3335512
514,29182738.1883809
545,0.0
2,3, 1, 3, 0,18,15.00,30.00,Tuesday
9,17051021.3335512
514,30093107.9419219
545,0.0
2,3, 1, 3, 0,18,30.00,45.00,Tuesday
9,17051021.3335512
514,30788376.334082
545,0.0
2,3, 1, 3, 0,18,45.00,60.00,Tuesday
9,17051021.3335512
514,30985880.0112442
545,0.0
2,3, 1, 3, 0,19, 0.00,15.00,Tuesday
9,12529649.8973284
514,35617072.5300361
545,0.0
2,3, 1, 3, 0,19,15.00,30.00,Tuesday
9,12529649.8973284
514,36130151.4616408
545,0.0
2,3, 1, 3, 0,19,30.00,45.00,Tuesday
9,12529649.8973284
514,36634396.4086755
545,0.0
2,3, 1, 3, 0,19,45.00,60.00,Tuesday
9,12529649.8973284
514,37140442.6196516
545,0.0
2,3, 1, 3, 0,20, 0.00,15.00,Tuesday
9,12529649.8973284
514,37588147.5377029
545,0.0
2,3, 1, 3, 0,20,15.00,30.00,Tuesday
9,12529649.8973284
514,38041721.777325
545,0.0
2,3, 1, 3, 0,20,30.00,45.00,Tuesday
9,12529649.8973284
514,38503440.7453197
545,0.0
2,3, 1, 3, 0,20,45.00,60.00,Tuesday
9,12529649.8973284
514,38972763.5624724
545,0.0
2,3, 1, 3, 0,21, 0.00,15.00,Tuesday
9,9234499.76787687
514,34061668.5615193
545,0.0
2,3, 1, 3, 0,21,15.00,30.00,Tuesday
9,9234499.76787687
514,34615224.3892887
545,0.0
2,3, 1, 3, 0,21,30.00,45.00,Tuesday
9,9234499.76787687
514,35118260.2836418
545,0.0
2,3, 1, 3, 0,21,45.00,60.00,Tuesday
9,9234499.76787687
514,35586587.2437729
545,0.0
2,3, 1, 3, 0,22, 0.00,15.00,Tuesday
9,9234499.76787687
514,36017958.18699
545,0.0
2,3, 1, 3, 0,22,15.00,30.00,Tuesday
9,9234499.76787687
514,36463134.5645008
545,0.0
2,3, 1, 3, 0,22,30.00,45.00,Tuesday
9,9234499.76787687
514,36898742.698871
545,0.0
2,3, 1, 3, 0,22,45.00,60.00,Tuesday
9,9234499.76787687
514,37338713.9066814
545,0.0
2,3, 1, 3, 0,23, 0.00,15.00,Tuesday
9,5939349.6384254
514,0.0
545,0.0
2,3, 1, 3, 0,23,15.00,30.00,Tuesday
9,5939349.6384254
514,2410475.92637739
545,0.0
2,3, 1, 3, 0,23,30.00,45.00,Tuesday
9,5939349.6384254
514,4863107.99925177
545,0.0
2,3, 1, 3, 0,23,45.00,60.00,Tuesday
9,5939349.6384254
514,6291709.02297595
545,0.0
2,3, 1, 3, 0,24, 0.00,15.00,Tuesday
9,5422117.43275536
514,6741691.24661993
545,0.0
2,3, 1, 3, 0,24,15.00,30.00,Tuesday
9,5422117.43275536
514,7048776.82309507
545,0.0
2,3, 1, 3, 0,24,30.00,45.00,Tuesday
9,5422117.43275536
514,7218007.93493417
545,0.0
2,3, 1, 3, 0,24,45.00,60.00,Tuesday
9,5422117.43275536
514,7338659.76027143
545,0.0
2,4, 1, 4, 0, 1, 0.00,15.00,Wednesday
9,5422117.43275536
514,7405762.03640689
545,0.0
2,4, 1, 4, 0, 1,15.00,30.00,Wednesday
9,5422117.43275536
514,7409622.43186498
545,0.0
2,4, 1, 4, 0, 1,30.00,45.00,Wednesday
9,5422117.43275536
514,7398713.93101614
545,0.0
2,4, 1, 4, 0, 1,45.00,60.00,Wednesday
9,5422117.43275536
514,7376967.55843254
545,0.0
2,4, 1, 4, 0, 2, 0.00,15.00,Wednesday
9,5422117.43275536
514,7516745.77344053
545,0.0
2,4, 1, 4, 0, 2,15.00,30.00,Wednesday
9,5422117.43275536
514,7647573.36827529
545,0.0
2,4, 1, 4, 0, 2,30.00,45.00,Wednesday
9,5422117.43275536
514,7769104.86331401
545,0.0
2,4, 1, 4, 0, 2,45.00,60.00,Wednesday
9,5422117.43275536
514,7883446.25632647
545,0.0
2,4, 1, 4, 0, 3, 0.00,15.00,Wednesday
9,5422117.43275536
514,8138027.09847291
545,0.0
2,4, 1, 4, 0, 3,15.00,30.00,Wednesday
9,5422117.43275536
514,8429294.07896637
545,0.0
2,4, 1, 4, 0, 3,30.00,45.00,Wednesday
9,5422117.43275536
514,8923031.94361696
545,0.0
2,4, 1, 4, 0, 3,45.00,60.00,Wednesday
9,5422117.43275536
514,9261926.02819197
545,0.0
2,4, 1, 4, 0, 4, 0.00,15.00,Wednesday
9,5422117.43275536
514,9714199.58730005
545,0.0
2,4, 1, 4, 0, 4,15.00,30.00,Wednesday
9,5422117.43275536
514,10223701.413433
545,0.0
2,4, 1, 4, 0, 4,30.00,45.00,Wednesday
9,5422117.43275536
514,10693032.7921899
545,0.0
2,4, 1, 4, 0, 4,45.00,60.00,Wednesday
9,5422117.43275536
514,11155430.4914389
545,0.0
2,4, 1, 4, 0, 5, 0.00,15.00,Wednesday
9,5422117.43275536
514,11470727.8405202
545,0.0
2,4, 1, 4, 0, 5,15.00,30.00,Wednesday
9,5422117.43275536
514,11784827.6265856
545,0.0
2,4, 1, 4, 0, 5,30.00,45.00,Wednesday
9,5422117.43275536
514,12090079.6618844
545,0.0
2,4, 1, 4, 0, 5,45.00,60.00,Wednesday
9,5422117.43275536
514,12385753.029409
545,0.0
2,4, 1, 4, 0, 6, 0.00,15.00,Wednesday
9,5939349.6384254
514,12529599.1492342
545,0.0
2,4, 1, 4, 0, 6,15.00,30.00,Wednesday
9,5939349.6384254
514,12932722.6049107
545,0.0
2,4, 1, 4, 0, 6,30.00,45.00,Wednesday
9,5939349.6384254
514,13393827.108455
545,0.0
2,4, 1, 4, 0, 6,45.00,60.00,Wednesday
9,5939349.6384254
514,13857801.7064362
545,0.0
2,4, 1, 4, 0, 7, 0.00,15.00,Wednesday
9,5939349.6384254
514,127316790.020523
545,0.0
2,4, 1, 4, 0, 7,15.00,30.00,Wednesday
9,5939349.6384254
514,62471067.8722573
545,0.0
2,4, 1, 4, 0, 7,30.00,45.00,Wednesday
9,5939349.6384254
514,98478392.3614176
545,0.0
2,4, 1, 4, 0, 7,45.00,60.00,Wednesday
9,5939349.6384254
514,61688012.6003853
545,0.0
2,4, 1, 4, 0, 8, 0.00,15.00,Wednesday
9,8008278.46110554
514,63630996.0268376
545,0.0
2,4, 1, 4, 0, 8,15.00,30.00,Wednesday
9,8008278.46110554
514,62030390.7779824
545,0.0
2,4, 1, 4, 0, 8,30.00,45.00,Wednesday
9,8008278.46110554
514,60700233.0371909
545,0.0
2,4, 1, 4, 0, 8,45.00,60.00,Wednesday
9,8008278.46110554
514,59584669.2841751
545,0.0
2,4, 1, 4, 0, 9, 0.00,15.00,Wednesday
9,20346171.4630026
514,54184079.5866525
545,0.0
2,4, 1, 4, 0, 9,15.00,30.00,Wednesday
9,20346171.4630026
514,52945856.4491125
545,0.0
2,4, 1, 4, 0, 9,30.00,45.00,Wednesday
9,20346171.4630026
514,51845888.8683943
545,0.0
2,4, 1, 4, 0, 9,45.00,60.00,Wednesday
9,20346171.4630026
514,50825297.3895143
545,0.0
2,4, 1, 4, 0,10, 0.00,15.00,Wednesday
9,20346171.4630026
514,49705421.4326188
545,0.0
2,4, 1, 4, 0,10,15.00,30.00,Wednesday
9,20346171.4630026
514,48634311.6961427
545,0.0
2,4, 1, 4, 0,10,30.00,45.00,Wednesday
9,20346171.4630026
514,47605539.4818077
545,0.0
2,4, 1, 4, 0,10,45.00,60.00,Wednesday
9,20346171.4630026
514,46604487.1783362
545,0.0
2,4, 1, 4, 0,11, 0.00,15.00,Wednesday
9,20346171.4630026
514,45858417.5232761
545,0.0
2,4, 1, 4, 0,11,15.00,30.00,Wednesday
9,20346171.4630026
514,45129030.701386
545,0.0
2,4, 1, 4, 0,11,30.00,45.00,Wednesday
9,20346171.4630026
514,44452251.1313024
545,0.0
2,4, 1, 4, 0,11,45.00,60.00,Wednesday
9,20346171.4630026
514,43804763.2658833
545,0.0
2,4, 1, 4, 0,12, 0.00,15.00,Wednesday
9,20346171.4630026
514,42989058.338205
545,0.0
2,4, 1, 4, 0,12,15.00,30.00,Wednesday
9,20346171.4630026
514,42191682.5392283
545,0.0
2,4, 1, 4, 0,12,30.00,45.00,Wednesday