Program Version,EnergyPlus, Version 8.5.0-c87e61b44b, YMD=2017.12.16 17:07
1,5,Environment Title[],Latitude[deg],Longitude[deg],Time Zone[],Elevation[m]
2,6,Day of Simulation[],Month[],Day of Month[],DST Indicator[1=yes 0=no],Hour[],StartMinute[],EndMinute[],DayType
3,3,Cumulative Day of Simulation[],Month[],Day of Month[],DST Indicator[1=yes 0=no],DayType  ! When Daily Meters Requested
4,2,Cumulative Days of Simulation[],Month[]  ! When Monthly Meters Requested
5,1,Cumulative Days of Simulation[] ! When Run Period Meters Requested
9,1,Electricity:Facility [J] !TimeStep
545,1,DistrictCooling:Facility [J] !TimeStep
514,1,DistrictHeating:Facility [J] !TimeStep
End of Data Dictionary
1,RUN PERIOD 1,  44.92,   9.73,   1.00, 134.00
2,1, 1, 1, 0, 1, 0.00,15.00,Sunday
9,4195896.12598403
514,38764117.7403816
545,0.0
2,1, 1, 1, 0, 1,15.00,30.00,Sunday
9,4195896.12598403
514,40533876.5361108
545,0.0
2,1, 1, 1, 0, 1,30.00,45.00,Sunday
9,4195896.12598403
514,42356586.3485939
545,0.0
2,1, 1, 1, 0, 1,45.00,60.00,Sunday
9,4195896.12598403
514,44220401.6756322
545,0.0
2,1, 1, 1, 0, 2, 0.00,15.00,Sunday
9,4195896.12598403
514,44381258.8895226
545,0.0
2,1, 1, 1, 0, 2,15.00,30.00,Sunday
9,4195896.12598403
514,44490540.418028
545,0.0
2,1, 1, 1, 0, 2,30.00,45.00,Sunday
9,4195896.12598403
514,44573943.9439833
545,0.0
2,1, 1, 1, 0, 2,45.00,60.00,Sunday
9,4195896.12598403
514,44643125.3376375
545,0.0
2,1, 1, 1, 0, 3, 0.00,15.00,Sunday
9,4195896.12598403
514,44814201.9970212
545,0.0
2,1, 1, 1, 0, 3,15.00,30.00,Sunday
9,4195896.12598403
514,44993457.1615871
545,0.0
2,1, 1, 1, 0, 3,30.00,45.00,Sunday
9,4195896.12598403
514,45175490.4355119
545,0.0
2,1, 1, 1, 0, 3,45.00,60.00,Sunday
9,4195896.12598403
514,45358183.6087527
545,0.0
2,1, 1, 1, 0, 4, 0.00,15.00,Sunday
9,4195896.12598403
514,45521637.5588873
545,0.0
2,1, 1, 1, 0, 4,15.00,30.00,Sunday
9,4195896.12598403
514,45682822.5010574
545,0.0
2,1, 1, 1, 0, 4,30.00,45.00,Sunday
9,4195896.12598403
514,45842364.7884182
545,0.0
2,1, 1, 1, 0, 4,45.00,60.00,Sunday
9,4195896.12598403
514,46000748.1959492
545,0.0
2,1, 1, 1, 0, 5, 0.00,15.00,Sunday
9,4195896.12598403
514,46031855.0525034
545,0.0
2,1, 1, 1, 0, 5,15.00,30.00,Sunday
9,4195896.12598403
514,46047627.7691587
545,0.0
2,1, 1, 1, 0, 5,30.00,45.00,Sunday
9,4195896.12598403
514,46052682.6713554
545,0.0
2,1, 1, 1, 0, 5,45.00,60.00,Sunday
9,4195896.12598403
514,46051155.4538741
545,0.0
2,1, 1, 1, 0, 6, 0.00,15.00,Sunday
9,4195896.12598403
514,46144654.0795161
545,0.0
2,1, 1, 1, 0, 6,15.00,30.00,Sunday
9,4195896.12598403
514,46245856.4768465
545,0.0
2,1, 1, 1, 0, 6,30.00,45.00,Sunday
9,4195896.12598403
514,46351782.422236
545,0.0
2,1, 1, 1, 0, 6,45.00,60.00,Sunday
9,4195896.12598403
514,46459604.7866777
545,0.0
2,1, 1, 1, 0, 7, 0.00,15.00,Sunday
9,4195896.12598403
514,46515058.769716
545,0.0
2,1, 1, 1, 0, 7,15.00,30.00,Sunday
9,4195896.12598403
514,46560594.7404727
545,0.0
2,1, 1, 1, 0, 7,30.00,45.00,Sunday
9,4195896.12598403
514,46602208.5465547
545,0.0
2,1, 1, 1, 0, 7,45.00,60.00,Sunday
9,4195896.12598403
514,46640830.7330146
545,0.0
2,1, 1, 1, 0, 8, 0.00,15.00,Sunday
9,4195896.12598403
514,46559843.6813354
545,0.0
2,1, 1, 1, 0, 8,15.00,30.00,Sunday
9,4195896.12598403
514,46474993.0550995
545,0.0
2,1, 1, 1, 0, 8,30.00,45.00,Sunday
9,4195896.12598403
514,46385227.8386379
545,0.0
2,1, 1, 1, 0, 8,45.00,60.00,Sunday
9,4195896.12598403
514,46291606.3002712
545,0.0
2,1, 1, 1, 0, 9, 0.00,15.00,Sunday
9,4195896.12598403
514,45739580.3436573
545,0.0
2,1, 1, 1, 0, 9,15.00,30.00,Sunday
9,4195896.12598403
514,45269703.2393771
545,0.0
2,1, 1, 1, 0, 9,30.00,45.00,Sunday
9,4195896.12598403
514,44666291.1352416
545,0.0
2,1, 1, 1, 0, 9,45.00,60.00,Sunday
9,4195896.12598403
514,44026529.029159
545,0.0
2,1, 1, 1, 0,10, 0.00,15.00,Sunday
9,4195896.12598403
514,43605111.6633628
545,0.0
2,1, 1, 1, 0,10,15.00,30.00,Sunday
9,4195896.12598403
514,43195305.111608
545,0.0
2,1, 1, 1, 0,10,30.00,45.00,Sunday
9,4195896.12598403
514,42821235.929131
545,0.0
2,1, 1, 1, 0,10,45.00,60.00,Sunday
9,4195896.12598403
514,42453519.802797
545,0.0
2,1, 1, 1, 0,11, 0.00,15.00,Sunday
9,4195896.12598403
514,42149514.2329873
545,0.0
2,1, 1, 1, 0,11,15.00,30.00,Sunday
9,4195896.12598403
514,41834453.8338708
545,0.0
2,1, 1, 1, 0,11,30.00,45.00,Sunday
9,4195896.12598403
514,41553709.732453
545,0.0
2,1, 1, 1, 0,11,45.00,60.00,Sunday
9,4195896.12598403
514,41280008.405422
545,0.0
2,1, 1, 1, 0,12, 0.00,15.00,Sunday
9,4195896.12598403
514,40946831.7015264
545,0.0
2,1, 1, 1, 0,12,15.00,30.00,Sunday
9,4195896.12598403
514,40417132.2900584
545,0.0
2,1, 1, 1, 0,12,30.00,45.00,Sunday
9,4195896.12598403
514,40021029.921262
545,0.0
2,1, 1, 1, 0,12,45.00,60.00,Sunday
9,4195896.12598403
514,39677403.7206986
545,0.0
2,1, 1, 1, 0,13, 0.00,15.00,Sunday
9,4195896.12598403
514,39627599.5473831
545,0.0
2,1, 1, 1, 0,13,15.00,30.00,Sunday
9,4195896.12598403
514,39601969.0784665
545,0.0
2,1, 1, 1, 0,13,30.00,45.00,Sunday
9,4195896.12598403
514,39658391.0080819
545,0.0
2,1, 1, 1, 0,13,45.00,60.00,Sunday
9,4195896.12598403
514,39751186.6922566
545,0.0
2,1, 1, 1, 0,14, 0.00,15.00,Sunday
9,4195896.12598403
514,39386054.3225837
545,0.0
2,1, 1, 1, 0,14,15.00,30.00,Sunday
9,4195896.12598403
514,39248327.2184429
545,0.0
2,1, 1, 1, 0,14,30.00,45.00,Sunday
9,4195896.12598403
514,39058117.2904301
545,0.0
2,1, 1, 1, 0,14,45.00,60.00,Sunday
9,4195896.12598403
514,38962804.5833902
545,0.0
2,1, 1, 1, 0,15, 0.00,15.00,Sunday
9,4195896.12598403
514,38734882.9729805
545,0.0
2,1, 1, 1, 0,15,15.00,30.00,Sunday
9,4195896.12598403
514,38459745.7167181
545,0.0
2,1, 1, 1, 0,15,30.00,45.00,Sunday
9,4195896.12598403
514,38227165.6445768
545,0.0
2,1, 1, 1, 0,15,45.00,60.00,Sunday
9,4195896.12598403
514,37972391.9432743
545,0.0
2,1, 1, 1, 0,16, 0.00,15.00,Sunday
9,4195896.12598403
514,37486790.6480707
545,0.0
2,1, 1, 1, 0,16,15.00,30.00,Sunday
9,4195896.12598403
514,36939519.0451577
545,0.0
2,1, 1, 1, 0,16,30.00,45.00,Sunday
9,4195896.12598403
514,36369389.8253741
545,0.0
2,1, 1, 1, 0,16,45.00,60.00,Sunday
9,4195896.12598403
514,35780833.5824453
545,0.0
2,1, 1, 1, 0,17, 0.00,15.00,Sunday
9,4195896.12598403
514,35859253.3046317
545,0.0
2,1, 1, 1, 0,17,15.00,30.00,Sunday
9,4195896.12598403
514,35933386.9331593
545,0.0
2,1, 1, 1, 0,17,30.00,45.00,Sunday
9,4195896.12598403
514,35992693.2879878
545,0.0
2,1, 1, 1, 0,17,45.00,60.00,Sunday
9,4195896.12598403
514,35959841.7890951
545,0.0
2,1, 1, 1, 0,18, 0.00,15.00,Sunday
9,4195896.12598403
514,35869308.3220004
545,0.0
2,1, 1, 1, 0,18,15.00,30.00,Sunday
9,4195896.12598403
514,35828160.1317714
545,0.0
2,1, 1, 1, 0,18,30.00,45.00,Sunday
9,4195896.12598403
514,35766450.901172
545,0.0
2,1, 1, 1, 0,18,45.00,60.00,Sunday
9,4195896.12598403
514,35666048.139303
545,0.0
2,1, 1, 1, 0,19, 0.00,15.00,Sunday
9,4195896.12598403
514,35646788.1034285
545,0.0
2,1, 1, 1, 0,19,15.00,30.00,Sunday
9,4195896.12598403
514,35606061.6062875
545,0.0
2,1, 1, 1, 0,19,30.00,45.00,Sunday
9,4195896.12598403
514,35546905.9921586
545,0.0
2,1, 1, 1, 0,19,45.00,60.00,Sunday
9,4195896.12598403
514,35467285.9432789
545,0.0
2,1, 1, 1, 0,20, 0.00,15.00,Sunday
9,4195896.12598403
514,35452940.8155923
545,0.0
2,1, 1, 1, 0,20,15.00,30.00,Sunday
9,4195896.12598403
514,35403045.7058455
545,0.0
2,1, 1, 1, 0,20,30.00,45.00,Sunday
9,4195896.12598403
514,35373663.2000966
545,0.0
2,1, 1, 1, 0,20,45.00,60.00,Sunday
9,4195896.12598403
514,35340226.4802711
545,0.0
2,1, 1, 1, 0,21, 0.00,15.00,Sunday
9,4195896.12598403
514,35508839.7184682
545,0.0
2,1, 1, 1, 0,21,15.00,30.00,Sunday
9,4195896.12598403
514,35727299.5787307
545,0.0
2,1, 1, 1, 0,21,30.00,45.00,Sunday
9,4195896.12598403
514,35950011.6789977
545,0.0
2,1, 1, 1, 0,21,45.00,60.00,Sunday
9,4195896.12598403
514,36150833.4944786
545,0.0
2,1, 1, 1, 0,22, 0.00,15.00,Sunday
9,4195896.12598403
514,36321088.8646232
545,0.0
2,1, 1, 1, 0,22,15.00,30.00,Sunday
9,4195896.12598403
514,36452366.8970275
545,0.0
2,1, 1, 1, 0,22,30.00,45.00,Sunday
9,4195896.12598403
514,36596719.7999261
545,0.0
2,1, 1, 1, 0,22,45.00,60.00,Sunday
9,4195896.12598403
514,36788398.4510505
545,0.0
2,1, 1, 1, 0,23, 0.00,15.00,Sunday
9,4195896.12598403
514,36838673.357931
545,0.0
2,1, 1, 1, 0,23,15.00,30.00,Sunday
9,4195896.12598403
514,36890692.0730992
545,0.0
2,1, 1, 1, 0,23,30.00,45.00,Sunday
9,4195896.12598403
514,36944370.9922879
545,0.0
2,1, 1, 1, 0,23,45.00,60.00,Sunday
9,4195896.12598403
514,37000181.3217332
545,0.0
2,1, 1, 1, 0,24, 0.00,15.00,Sunday
9,4195896.12598403
514,37017136.0825473
545,0.0
2,1, 1, 1, 0,24,15.00,30.00,Sunday
9,4195896.12598403
514,37035634.722089
545,0.0
2,1, 1, 1, 0,24,30.00,45.00,Sunday
9,4195896.12598403
514,37056450.168831
545,0.0
2,1, 1, 1, 0,24,45.00,60.00,Sunday
9,4195896.12598403
514,37079625.4106447
545,0.0
2,2, 1, 2, 0, 1, 0.00,15.00,Monday
9,5422117.43275536
514,35721686.4195149
545,0.0
2,2, 1, 2, 0, 1,15.00,30.00,Monday
9,5422117.43275536
514,35576313.0380423
545,0.0
2,2, 1, 2, 0, 1,30.00,45.00,Monday
9,5422117.43275536
514,35421872.7850465
545,0.0
2,2, 1, 2, 0, 1,45.00,60.00,Monday
9,5422117.43275536
514,35261624.7205779
545,0.0
2,2, 1, 2, 0, 2, 0.00,15.00,Monday
9,5422117.43275536
514,35406009.7339182
545,0.0
2,2, 1, 2, 0, 2,15.00,30.00,Monday
9,5422117.43275536
514,35579319.1642432
545,0.0
2,2, 1, 2, 0, 2,30.00,45.00,Monday
9,5422117.43275536
514,35770009.8301735
545,0.0
2,2, 1, 2, 0, 2,45.00,60.00,Monday
9,5422117.43275536
514,35972884.3786683
545,0.0
2,2, 1, 2, 0, 3, 0.00,15.00,Monday
9,5422117.43275536
514,35921047.4216654
545,0.0
2,2, 1, 2, 0, 3,15.00,30.00,Monday
9,5422117.43275536
514,35841354.0069204
545,0.0
2,2, 1, 2, 0, 3,30.00,45.00,Monday
9,5422117.43275536
514,35744848.3860127
545,0.0
2,2, 1, 2, 0, 3,45.00,60.00,Monday
9,5422117.43275536
514,35637489.9869042
545,0.0
2,2, 1, 2, 0, 4, 0.00,15.00,Monday
9,5422117.43275536
514,35642257.3959451
545,0.0
2,2, 1, 2, 0, 4,15.00,30.00,Monday
9,5422117.43275536
514,35656043.5150919
545,0.0
2,2, 1, 2, 0, 4,30.00,45.00,Monday
9,5422117.43275536
514,35674537.0625036
545,0.0
2,2, 1, 2, 0, 4,45.00,60.00,Monday
9,5422117.43275536
514,35695384.9169978
545,0.0
2,2, 1, 2, 0, 5, 0.00,15.00,Monday
9,5422117.43275536
514,35628937.9799977
545,0.0
2,2, 1, 2, 0, 5,15.00,30.00,Monday
9,5422117.43275536
514,35559110.9826766
545,0.0
2,2, 1, 2, 0, 5,30.00,45.00,Monday
9,5422117.43275536
514,35488150.5601791
545,0.0
2,2, 1, 2, 0, 5,45.00,60.00,Monday
9,5422117.43275536
514,35416078.3119624
545,0.0
2,2, 1, 2, 0, 6, 0.00,15.00,Monday
9,5939349.6384254
514,34624134.5728657
545,0.0
2,2, 1, 2, 0, 6,15.00,30.00,Monday
9,5939349.6384254
514,34334091.8732393
545,0.0
2,2, 1, 2, 0, 6,30.00,45.00,Monday
9,5939349.6384254
514,34032486.0390277
545,0.0
2,2, 1, 2, 0, 6,45.00,60.00,Monday
9,5939349.6384254
514,33722856.5645748
545,0.0
2,2, 1, 2, 0, 7, 0.00,15.00,Monday
9,5939349.6384254
514,165734048.356168
545,0.0
2,2, 1, 2, 0, 7,15.00,30.00,Monday
9,5939349.6384254
514,94143328.8945674
545,0.0
2,2, 1, 2, 0, 7,30.00,45.00,Monday
9,5939349.6384254
514,118109396.876574
545,0.0
2,2, 1, 2, 0, 7,45.00,60.00,Monday
9,5939349.6384254
514,84310420.6057348
545,0.0
2,2, 1, 2, 0, 8, 0.00,15.00,Monday
9,8008278.46110554
514,82858699.1765548
545,0.0
2,2, 1, 2, 0, 8,15.00,30.00,Monday
9,8008278.46110554
514,79856548.394488
545,0.0
2,2, 1, 2, 0, 8,30.00,45.00,Monday
9,8008278.46110554
514,77429139.4484444
545,0.0
2,2, 1, 2, 0, 8,45.00,60.00,Monday
9,8008278.46110554
514,75416991.7983038
545,0.0
2,2, 1, 2, 0, 9, 0.00,15.00,Monday
9,20346171.4630026
514,68151905.3845002
545,0.0
2,2, 1, 2, 0, 9,15.00,30.00,Monday
9,20346171.4630026
514,66012799.6901462
545,0.0
2,2, 1, 2, 0, 9,30.00,45.00,Monday
9,20346171.4630026
514,64082737.9861704
545,0.0
2,2, 1, 2, 0, 9,45.00,60.00,Monday
9,20346171.4630026
514,62276627.9667719
545,0.0
2,2, 1, 2, 0,10, 0.00,15.00,Monday
9,20346171.4630026
514,60778060.7600671
545,0.0
2,2, 1, 2, 0,10,15.00,30.00,Monday
9,20346171.4630026
514,59388128.0759462
545,0.0
2,2, 1, 2, 0,10,30.00,45.00,Monday
9,20346171.4630026
514,58099456.6419203
545,0.0
2,2, 1, 2, 0,10,45.00,60.00,Monday
9,20346171.4630026
514,56889762.8691734
545,0.0
2,2, 1, 2, 0,11, 0.00,15.00,Monday
9,20346171.4630026
514,55652300.5929512
545,0.0
2,2, 1, 2, 0,11,15.00,30.00,Monday
9,20346171.4630026
514,54456098.1658395
545,0.0
2,2, 1, 2, 0,11,30.00,45.00,Monday
9,20346171.4630026
514,53450631.5773523
545,0.0
2,2, 1, 2, 0,11,45.00,60.00,Monday
9,20346171.4630026
514,52476463.3121255
545,0.0
2,2, 1, 2, 0,12, 0.00,15.00,Monday
9,20346171.4630026
514,51550083.9963812
545,0.0
2,2, 1, 2, 0,12,15.00,30.00,Monday
9,20346171.4630026
514,50654315.5744943
545,0.0
2,2, 1, 2, 0,12,30.00,45.00,Monday
9,20346171.4630026
514,49785042.3164405
545,0.0
2,2, 1, 2, 0,12,45.00,60.00,Monday
9,20346171.4630026
514,48970005.7228855
545,0.0
2,2, 1, 2, 0,13, 0.00,15.00,Monday
9,19119950.1562313
514,48452277.7490438
545,0.0
2,2, 1, 2, 0,13,15.00,30.00,Monday
9,19119950.1562313
514,47316047.657294
545,0.0
2,2, 1, 2, 0,13,30.00,45.00,Monday
9,19119950.1562313
514,46205780.9440088
545,0.0
2,2, 1, 2, 0,13,45.00,60.00,Monday
9,19119950.1562313
514,45108644.2843526
545,0.0
2,2, 1, 2, 0,14, 0.00,15.00,Monday
9,20346171.4630026
514,43863026.9095125
545,0.0
2,2, 1, 2, 0,14,15.00,30.00,Monday
9,20346171.4630026
514,43245652.118591
545,0.0
2,2, 1, 2, 0,14,30.00,45.00,Monday
9,20346171.4630026
514,42711128.1167805
545,0.0
2,2, 1, 2, 0,14,45.00,60.00,Monday
9,20346171.4630026
514,42190089.3938943
545,0.0
2,2, 1, 2, 0,15, 0.00,15.00,Monday
9,20346171.4630026
514,41688026.6098692
545,0.0
2,2, 1, 2, 0,15,15.00,30.00,Monday
9,20346171.4630026
514,41199259.078858
545,0.0
2,2, 1, 2, 0,15,30.00,45.00,Monday
9,20346171.4630026
514,40756341.4500609
545,0.0
2,2, 1, 2, 0,15,45.00,60.00,Monday
9,20346171.4630026
514,40344092.1733883
545,0.0
2,2, 1, 2, 0,16, 0.00,15.00,Monday
9,20346171.4630026
514,39930711.5106453
545,0.0
2,2, 1, 2, 0,16,15.00,30.00,Monday
9,20346171.4630026
514,39435249.6485021
545,0.0
2,2, 1, 2, 0,16,30.00,45.00,Monday
9,20346171.4630026
514,38954365.1597958
545,0.0
2,2, 1, 2, 0,16,45.00,60.00,Monday
9,20346171.4630026
514,38471859.7314764
545,0.0
2,2, 1, 2, 0,17, 0.00,15.00,Monday
9,20346171.4630026
514,38404445.9739551
545,0.0
2,2, 1, 2, 0,17,15.00,30.00,Monday
9,20346171.4630026
514,38380884.6174577
545,0.0
2,2, 1, 2, 0,17,30.00,45.00,Monday
9,20346171.4630026
514,38382988.7489065
545,0.0
2,2, 1, 2, 0,17,45.00,60.00,Monday
9,20346171.4630026
514,38321098.04956
545,0.0
2,2, 1, 2, 0,18, 0.00,15.00,Monday
9,17051021.3335512
514,41324076.568533
545,0.0
2,2, 1, 2, 0,18,15.00,30.00,Monday
9,17051021.3335512
514,41223747.7525504
545,0.0
2,2, 1, 2, 0,18,30.00,45.00,Monday
9,17051021.3335512
514,41105899.8447178
545,0.0
2,2, 1, 2, 0,18,45.00,60.00,Monday
9,17051021.3335512
514,40980737.6571275
545,0.0
2,2, 1, 2, 0,19, 0.00,15.00,Monday
9,12529649.8973284
514,45212968.8962311
545,0.0
2,2, 1, 2, 0,19,15.00,30.00,Monday
9,12529649.8973284
514,45421315.361544
545,0.0
2,2, 1, 2, 0,19,30.00,45.00,Monday
9,12529649.8973284
514,45646340.2167273
545,0.0
2,2, 1, 2, 0,19,45.00,60.00,Monday
9,12529649.8973284
514,45930320.3739197
545,0.0
2,2, 1, 2, 0,20, 0.00,15.00,Monday
9,12529649.8973284
514,45847293.457149
545,0.0
2,2, 1, 2, 0,20,15.00,30.00,Monday
9,12529649.8973284
514,45759475.7579175
545,0.0
2,2, 1, 2, 0,20,30.00,45.00,Monday
9,12529649.8973284
514,45673512.7327347
545,0.0
2,2, 1, 2, 0,20,45.00,60.00,Monday
9,12529649.8973284
514,45591912.0840671
545,0.0
2,2, 1, 2, 0,21, 0.00,15.00,Monday
9,9234499.76787687
514,41859033.989018
545,0.0
2,2, 1, 2, 0,21,15.00,30.00,Monday
9,9234499.76787687
514,42165978.9584942
545,0.0
2,2, 1, 2, 0,21,30.00,45.00,Monday
9,9234499.76787687
514,42439977.9120017
545,0.0
2,2, 1, 2, 0,21,45.00,60.00,Monday
9,9234499.76787687
514,42678212.5574392
545,0.0
2,2, 1, 2, 0,22, 0.00,15.00,Monday
9,9234499.76787687
514,42831425.3349447
545,0.0
2,2, 1, 2, 0,22,15.00,30.00,Monday
9,9234499.76787687
514,42952293.1257391
545,0.0
2,2, 1, 2, 0,22,30.00,45.00,Monday
9,9234499.76787687
514,43087256.2174737
545,0.0
2,2, 1, 2, 0,22,45.00,60.00,Monday
9,9234499.76787687
514,43224208.63819
545,0.0
2,2, 1, 2, 0,23, 0.00,15.00,Monday
9,5939349.6384254
514,0.0
545,0.0
2,2, 1, 2, 0,23,15.00,30.00,Monday
9,5939349.6384254
514,1309982.51985376
545,0.0
2,2, 1, 2, 0,23,30.00,45.00,Monday
9,5939349.6384254
514,3611349.12906423
545,0.0
2,2, 1, 2, 0,23,45.00,60.00,Monday
9,5939349.6384254
514,5309016.94909326
545,0.0
2,2, 1, 2, 0,24, 0.00,15.00,Monday
9,5422117.43275536
514,6731819.93181153
545,0.0
2,2, 1, 2, 0,24,15.00,30.00,Monday
9,5422117.43275536
514,7417497.91887931
545,0.0
2,2, 1, 2, 0,24,30.00,45.00,Monday
9,5422117.43275536
514,9777707.96436808
545,0.0
2,2, 1, 2, 0,24,45.00,60.00,Monday
9,5422117.43275536
514,10377947.925449
545,0.0
2,3, 1, 3, 0, 1, 0.00,15.00,Tuesday
9,5422117.43275536
514,10859375.1860181
545,0.0
2,3, 1, 3, 0, 1,15.00,30.00,Tuesday
9,5422117.43275536
514,11788933.7289709
545,0.0
2,3, 1, 3, 0, 1,30.00,45.00,Tuesday
9,5422117.43275536
514,12514061.866881
545,0.0
2,3, 1, 3, 0, 1,45.00,60.00,Tuesday
9,5422117.43275536
514,13190331.71913
545,0.0
2,3, 1, 3, 0, 2, 0.00,15.00,Tuesday
9,5422117.43275536
514,13608623.8715486
545,0.0
2,3, 1, 3, 0, 2,15.00,30.00,Tuesday
9,5422117.43275536
514,13977042.9412733
545,0.0
2,3, 1, 3, 0, 2,30.00,45.00,Tuesday
9,5422117.43275536
514,14312036.2411715
545,0.0
2,3, 1, 3, 0, 2,45.00,60.00,Tuesday
9,5422117.43275536
514,14711293.0980714
545,0.0
2,3, 1, 3, 0, 3, 0.00,15.00,Tuesday
9,5422117.43275536
514,15290443.5581813
545,0.0
2,3, 1, 3, 0, 3,15.00,30.00,Tuesday
9,5422117.43275536
514,15604263.0710821
545,0.0
2,3, 1, 3, 0, 3,30.00,45.00,Tuesday
9,5422117.43275536
514,16024021.6417489
545,0.0
2,3, 1, 3, 0, 3,45.00,60.00,Tuesday
9,5422117.43275536
514,16642987.1852459
545,0.0
2,3, 1, 3, 0, 4, 0.00,15.00,Tuesday
9,5422117.43275536
514,16955954.9299819
545,0.0
2,3, 1, 3, 0, 4,15.00,30.00,Tuesday
9,5422117.43275536
514,17087601.8816836
545,0.0
2,3, 1, 3, 0, 4,30.00,45.00,Tuesday
9,5422117.43275536
514,17280109.3114734
545,0.0
2,3, 1, 3, 0, 4,45.00,60.00,Tuesday
9,5422117.43275536
514,17400655.3658541
545,0.0
2,3, 1, 3, 0, 5, 0.00,15.00,Tuesday
9,5422117.43275536
514,17849226.729776
545,0.0
2,3, 1, 3, 0, 5,15.00,30.00,Tuesday
9,5422117.43275536
514,18319037.3222171
545,0.0
2,3, 1, 3, 0, 5,30.00,45.00,Tuesday
9,5422117.43275536
514,18791976.6689146
545,0.0
2,3, 1, 3, 0, 5,45.00,60.00,Tuesday
9,5422117.43275536
514,19260962.6940417
545,0.0
2,3, 1, 3, 0, 6, 0.00,15.00,Tuesday
9,5939349.6384254
514,18992600.8057986
545,0.0
2,3, 1, 3, 0, 6,15.00,30.00,Tuesday
9,5939349.6384254
514,19206473.8693279
545,0.0
2,3, 1, 3, 0, 6,30.00,45.00,Tuesday
9,5939349.6384254
514,19393215.7139242
545,0.0
2,3, 1, 3, 0, 6,45.00,60.00,Tuesday
9,5939349.6384254
514,19561370.9490556
545,0.0
2,3, 1, 3, 0, 7, 0.00,15.00,Tuesday
9,5939349.6384254
514,144618859.586375
545,0.0
2,3, 1, 3, 0, 7,15.00,30.00,Tuesday
9,5939349.6384254
514,89706837.6657862
545,0.0
2,3, 1, 3, 0, 7,30.00,45.00,Tuesday
9,5939349.6384254
514,105217499.892803
545,0.0
2,3, 1, 3, 0, 7,45.00,60.00,Tuesday
9,5939349.6384254
514,68617620.6001076
545,0.0
2,3, 1, 3, 0, 8, 0.00,15.00,Tuesday
9,8008278.46110554
514,67956107.554937
545,0.0
2,3, 1, 3, 0, 8,15.00,30.00,Tuesday
9,8008278.46110554
514,65490301.8283416
545,0.0
2,3, 1, 3, 0, 8,30.00,45.00,Tuesday
9,8008278.46110554
514,63547869.1885786
545,0.0
2,3, 1, 3, 0, 8,45.00,60.00,Tuesday
9,8008278.46110554
514,61968997.1343945
545,0.0
2,3, 1, 3, 0, 9, 0.00,15.00,Tuesday
9,20346171.4630026
514,54310696.4164881
545,0.0
2,3, 1, 3, 0, 9,15.00,30.00,Tuesday
9,20346171.4630026
514,52997774.9553443
545,0.0
2,3, 1, 3, 0, 9,30.00,45.00,Tuesday
9,20346171.4630026
514,51891790.8441326
545,0.0
2,3, 1, 3, 0, 9,45.00,60.00,Tuesday
9,20346171.4630026
514,50917483.7066587
545,0.0
2,3, 1, 3, 0,10, 0.00,15.00,Tuesday
9,20346171.4630026
514,49909633.9032055
545,0.0
2,3, 1, 3, 0,10,15.00,30.00,Tuesday
9,20346171.4630026
514,48970513.0776071
545,0.0
2,3, 1, 3, 0,10,30.00,45.00,Tuesday
9,20346171.4630026
514,48095196.1856433
545,0.0
2,3, 1, 3, 0,10,45.00,60.00,Tuesday
9,20346171.4630026
514,47269600.9536362
545,0.0
2,3, 1, 3, 0,11, 0.00,15.00,Tuesday
9,20346171.4630026
514,46372508.26182
545,0.0
2,3, 1, 3, 0,11,15.00,30.00,Tuesday
9,20346171.4630026
514,45525277.938444
545,0.0
2,3, 1, 3, 0,11,30.00,45.00,Tuesday
9,20346171.4630026
514,44751500.8004564
545,0.0
2,3, 1, 3, 0,11,45.00,60.00,Tuesday
9,20346171.4630026
514,44020805.2038679
545,0.0
2,3, 1, 3, 0,12, 0.00,15.00,Tuesday
9,20346171.4630026
514,42934621.3567861
545,0.0
2,3, 1, 3, 0,12,15.00,30.00,Tuesday
9,20346171.4630026
514,41846011.016893
545,0.0
2,3, 1, 3, 0,12,30.00,45.00,Tuesday
9,20346171.4630026
514,40799564.9106066
545,0.0
2,3, 1, 3, 0,12,45.00,60.00,Tuesday
9,20346171.4630026
514,39777291.1286416
545,0.0
2,3, 1, 3, 0,13, 0.00,15.00,Tuesday
9,19119950.1562313
514,39193656.2300219
545,0.0
2,3, 1, 3, 0,13,15.00,30.00,Tuesday
9,19119950.1562313
514,37958688.3241312
545,0.0
2,3, 1, 3, 0,13,30.00,45.00,Tuesday
9,19119950.1562313
514,36750261.9387803
545,0.0
2,3, 1, 3, 0,13,45.00,60.00,Tuesday
9,19119950.1562313
514,35559378.0157234
545,0.0
2,3, 1, 3, 0,14, 0.00,15.00,Tuesday
9,20346171.4630026
514,34398519.7320133
545,0.0
2,3, 1, 3, 0,14,15.00,30.00,Tuesday
9,20346171.4630026
514,34005495.2044456
545,0.0
2,3, 1, 3, 0,14,30.00,45.00,Tuesday
9,20346171.4630026
514,33695099.1090581
545,0.0
2,3, 1, 3, 0,14,45.00,60.00,Tuesday
9,20346171.4630026
514,33427348.6677779
545,0.0
2,3, 1, 3, 0,15, 0.00,15.00,Tuesday
9,20346171.4630026
514,33215045.6200467
545,0.0
2,3, 1, 3, 0,15,15.00,30.00,Tuesday
9,20346171.4630026
514,33009000.7762527
545,0.0
2,3, 1, 3, 0,15,30.00,45.00,Tuesday
9,20346171.4630026
514,32842317.3795094
545,0.0
2,3, 1, 3, 0,15,45.00,60.00,Tuesday
9,20346171.4630026
514,32705172.1585395
545,0.0
2,3, 1, 3, 0,16, 0.00,15.00,Tuesday
9,20346171.4630026
514,32825495.1027237
545,0.0
2,3, 1, 3, 0,16,15.00,30.00,Tuesday
9,20346171.4630026
514,32979594.4389815
545,0.0
2,3, 1, 3, 0,16,30.00,45.00,Tuesday
9,20346171.4630026
514,33159108.5120928
545,0.0
2,3, 1, 3, 0,16,45.00,60.00,Tuesday
9,20346171.4630026
514,33359270.074752
545,0.0
2,3, 1, 3, 0,17, 0.00,15.00,Tuesday
9,20346171.4630026
514,33643716.6815803
545,0.0
2,3, 1, 3, 0,17,15.00,30.00,Tuesday
9,20346171.4630026
514,33936405.2362167
545,0.0
2,3, 1, 3, 0,17,30.00,45.00,Tuesday
9,20346171.4630026
514,34183769.4493349
545,0.0
2,3, 1, 3, 0,17,45.00,60.00,Tuesday
9,20346171.4630026
514,34468363.6075038
545,0.0
2,3, 1, 3, 0,18, 0.00,15.00,Tuesday
9,17051021.3335512
514,38172192.6993333
545,0.0
2,3, 1, 3, 0,18,15.00,30.00,Tuesday
9,17051021.3335512
514,38828883.4514806
545,0.0
2,3, 1, 3, 0,18,30.00,45.00,Tuesday
9,17051021.3335512
514,39494036.223622
545,0.0
2,3, 1, 3, 0,18,45.00,60.00,Tuesday
9,17051021.3335512
514,40170799.199685
545,0.0
2,3, 1, 3, 0,19, 0.00,15.00,Tuesday
9,12529649.8973284
514,44805601.4498665
545,0.0
2,3, 1, 3, 0,19,15.00,30.00,Tuesday
9,12529649.8973284
514,45420424.0759183
545,0.0
2,3, 1, 3, 0,19,30.00,45.00,Tuesday
9,12529649.8973284
514,46024743.5365487
545,0.0
2,3, 1, 3, 0,19,45.00,60.00,Tuesday
9,12529649.8973284
514,46630774.9632833
545,0.0
2,3, 1, 3, 0,20, 0.00,15.00,Tuesday
9,12529649.8973284
514,47209983.0534236
545,0.0
2,3, 1, 3, 0,20,15.00,30.00,Tuesday
9,12529649.8973284
514,47804539.5113819
545,0.0
2,3, 1, 3, 0,20,30.00,45.00,Tuesday
9,12529649.8973284
514,48410493.1072882
545,0.0
2,3, 1, 3, 0,20,45.00,60.00,Tuesday
9,12529649.8973284
514,49026343.0887873
545,0.0
2,3, 1, 3, 0,21, 0.00,15.00,Tuesday
9,9234499.76787687
514,44389799.1838816
545,0.0
2,3, 1, 3, 0,21,15.00,30.00,Tuesday
9,9234499.76787687
514,45243758.8377099
545,0.0
2,3, 1, 3, 0,21,30.00,45.00,Tuesday
9,9234499.76787687
514,46144055.5222995
545,0.0
2,3, 1, 3, 0,21,45.00,60.00,Tuesday
9,9234499.76787687
514,46980370.7052628
545,0.0
2,3, 1, 3, 0,22, 0.00,15.00,Tuesday
9,9234499.76787687
514,47698464.9072769
545,0.0
2,3, 1, 3, 0,22,15.00,30.00,Tuesday
9,9234499.76787687
514,48491029.8351878
545,0.0
2,3, 1, 3, 0,22,30.00,45.00,Tuesday
9,9234499.76787687
514,49257633.7614213
545,0.0
2,3, 1, 3, 0,22,45.00,60.00,Tuesday
9,9234499.76787687
514,50024250.2764629
545,0.0
2,3, 1, 3, 0,23, 0.00,15.00,Tuesday
9,5939349.6384254
514,686669.452654223
545,0.0
2,3, 1, 3, 0,23,15.00,30.00,Tuesday
9,5939349.6384254
514,4012452.34370931
545,0.0
2,3, 1, 3, 0,23,30.00,45.00,Tuesday
9,5939349.6384254
514,6873457.63925595
545,0.0
2,3, 1, 3, 0,23,45.00,60.00,Tuesday
9,5939349.6384254
514,9775306.26759983
545,0.0
2,3, 1, 3, 0,24, 0.00,15.00,Tuesday
9,5422117.43275536
514,10493034.413982
545,0.0
2,3, 1, 3, 0,24,15.00,30.00,Tuesday
9,5422117.43275536
514,11869795.4773568
545,0.0
2,3, 1, 3, 0,24,30.00,45.00,Tuesday
9,5422117.43275536
514,15055618.9497794
545,0.0
2,3, 1, 3, 0,24,45.00,60.00,Tuesday
9,5422117.43275536
514,15117527.2477569
545,0.0
2,4, 1, 4, 0, 1, 0.00,15.00,Wednesday
9,5422117.43275536
514,14657498.1544307
545,0.0
2,4, 1, 4, 0, 1,15.00,30.00,Wednesday
9,5422117.43275536
514,14932007.7116957
545,0.0
2,4, 1, 4, 0, 1,30.00,45.00,Wednesday
9,5422117.43275536
514,15046566.3650705
545,0.0
2,4, 1, 4, 0, 1,45.00,60.00,Wednesday
9,5422117.43275536
514,15161922.2806395
545,0.0
2,4, 1, 4, 0, 2, 0.00,15.00,Wednesday
9,5422117.43275536
514,15529865.3689502
545,0.0
2,4, 1, 4, 0, 2,15.00,30.00,Wednesday
9,5422117.43275536
514,15921635.2182149
545,0.0
2,4, 1, 4, 0, 2,30.00,45.00,Wednesday
9,5422117.43275536
514,16848418.3562668
545,0.0
2,4, 1, 4, 0, 2,45.00,60.00,Wednesday
9,5422117.43275536
514,17378966.6968598
545,0.0
2,4, 1, 4, 0, 3, 0.00,15.00,Wednesday
9,5422117.43275536
514,17941345.4060957
545,0.0
2,4, 1, 4, 0, 3,15.00,30.00,Wednesday
9,5422117.43275536
514,18566096.9367462
545,0.0
2,4, 1, 4, 0, 3,30.00,45.00,Wednesday
9,5422117.43275536
514,19110701.658442
545,0.0
2,4, 1, 4, 0, 3,45.00,60.00,Wednesday
9,5422117.43275536
514,19613399.3838858
545,0.0
2,4, 1, 4, 0, 4, 0.00,15.00,Wednesday
9,5422117.43275536
514,20464615.6344515
545,0.0
2,4, 1, 4, 0, 4,15.00,30.00,Wednesday
9,5422117.43275536
514,21317258.3405178
545,0.0
2,4, 1, 4, 0, 4,30.00,45.00,Wednesday
9,5422117.43275536
514,22155857.1013755
545,0.0
2,4, 1, 4, 0, 4,45.00,60.00,Wednesday
9,5422117.43275536
514,23005136.013562
545,0.0
2,4, 1, 4, 0, 5, 0.00,15.00,Wednesday
9,5422117.43275536
514,23557516.8515104
545,0.0
2,4, 1, 4, 0, 5,15.00,30.00,Wednesday
9,5422117.43275536
514,24081779.5697305
545,0.0
2,4, 1, 4, 0, 5,30.00,45.00,Wednesday
9,5422117.43275536
514,24584412.2204767
545,0.0
2,4, 1, 4, 0, 5,45.00,60.00,Wednesday
9,5422117.43275536
514,25067854.0141226
545,0.0
2,4, 1, 4, 0, 6, 0.00,15.00,Wednesday
9,5939349.6384254
514,25241848.7969969
545,0.0
2,4, 1, 4, 0, 6,15.00,30.00,Wednesday
9,5939349.6384254
514,25944690.0188929
545,0.0
2,4, 1, 4, 0, 6,30.00,45.00,Wednesday
9,5939349.6384254
514,26653124.593741
545,0.0
2,4, 1, 4, 0, 6,45.00,60.00,Wednesday
9,5939349.6384254
514,27359512.2873659
545,0.0
2,4, 1, 4, 0, 7, 0.00,15.00,Wednesday
9,5939349.6384254
514,153953185.450004
545,0.0
2,4, 1, 4, 0, 7,15.00,30.00,Wednesday
9,5939349.6384254
514,84479680.3453514
545,0.0
2,4, 1, 4, 0, 7,30.00,45.00,Wednesday
9,5939349.6384254
514,111854661.40266
545,0.0
2,4, 1, 4, 0, 7,45.00,60.00,Wednesday
9,5939349.6384254
514,77298501.6060977
545,0.0
2,4, 1, 4, 0, 8, 0.00,15.00,Wednesday
9,8008278.46110554
514,77020364.9253952
545,0.0
2,4, 1, 4, 0, 8,15.00,30.00,Wednesday
9,8008278.46110554
514,74519944.6357984
545,0.0
2,4, 1, 4, 0, 8,30.00,45.00,Wednesday
9,8008278.46110554
514,72530112.5090266
545,0.0
2,4, 1, 4, 0, 8,45.00,60.00,Wednesday
9,8008278.46110554
514,70911905.0995166
545,0.0
2,4, 1, 4, 0, 9, 0.00,15.00,Wednesday
9,20346171.4630026
514,65073416.69214
545,0.0
2,4, 1, 4, 0, 9,15.00,30.00,Wednesday
9,20346171.4630026
514,63468406.1304648
545,0.0
2,4, 1, 4, 0, 9,30.00,45.00,Wednesday
9,20346171.4630026
514,62071848.0857431
545,0.0
2,4, 1, 4, 0, 9,45.00,60.00,Wednesday
9,20346171.4630026
514,60812684.5483759
545,0.0
2,4, 1, 4, 0,10, 0.00,15.00,Wednesday
9,20346171.4630026
514,59494152.2922533
545,0.0
2,4, 1, 4, 0,10,15.00,30.00,Wednesday
9,20346171.4630026
514,58257116.4385957
545,0.0
2,4, 1, 4, 0,10,30.00,45.00,Wednesday
9,20346171.4630026
514,57089359.4605384
545,0.0
2,4, 1, 4, 0,10,45.00,60.00,Wednesday
9,20346171.4630026
514,55972893.3669897
545,0.0
2,4, 1, 4, 0,11, 0.00,15.00,Wednesday
9,20346171.4630026
514,55180211.7519569
545,0.0
2,4, 1, 4, 0,11,15.00,30.00,Wednesday
9,20346171.4630026
514,54435628.2908725
545,0.0
2,4, 1, 4, 0,11,30.00,45.00,Wednesday
9,20346171.4630026
514,53759475.1602606
545,0.0
2,4, 1, 4, 0,11,45.00,60.00,Wednesday
9,20346171.4630026
514,53128015.3871949
545,0.0
2,4, 1, 4, 0,12, 0.00,15.00,Wednesday
9,20346171.4630026
514,52254099.4822283
545,0.0
2,4, 1, 4, 0,12,15.00,30.00,Wednesday
9,20346171.4630026
514,51378804.0526974
545,0.0
2,4, 1, 4, 0,12,30.00,45.00,Wednesday